Title
40504
  115LYS    CAY    1   1.767   0.928   3.704 -0.2378  0.1814 -0.2137
  115LYS    HY1    2   1.809   1.025   3.668 -1.8580  0.6875 -0.8244
  115LYS    HY2    3   1.704   0.956   3.791  1.0774 -0.2170  0.9111
  115LYS    HY3    4   1.706   0.885   3.623 -0.7775 -0.2947  0.4351
  115LYS     CY    5   1.871   0.832   3.750  0.1395  0.2833 -0.1145
  115LYS     OY    6   1.910   0.831   3.867 -0.0358 -0.2499  0.4053
  115LYS      N    7   1.933   0.755   3.661  0.4597 -0.1128  0.3835
  115LYS     HN    8   1.899   0.752   3.567 -0.9755  0.4870  0.8595
  115LYS     CA    9   2.040   0.659   3.681 -0.0921 -0.0536  1.4965
  115LYS     HA   10   2.011   0.603   3.769  1.5791  1.7147  3.2747
  115LYS     CB   11   2.065   0.569   3.561  0.5083  0.3721  0.0036
  115LYS    HB1   12   2.149   0.503   3.592 -0.4400 -1.0055 -0.3210
  115LYS    HB2   13   2.102   0.622   3.471  1.0785 -1.5382 -0.9422
  115LYS     CG   14   1.942   0.480   3.526 -0.5566 -0.5820  0.3160
  115LYS    HG1   15   1.858   0.544   3.492 -0.1285 -0.4803 -0.5556
  115LYS    HG2   16   1.903   0.441   3.623  2.0951 -1.6670  1.0263
  115LYS     CD   17   1.974   0.364   3.435  1.0594 -0.7345 -0.1977
  115LYS    HD1   18   2.016   0.289   3.506  1.3432 -1.0901 -0.7316
  115LYS    HD2   19   2.042   0.398   3.354 -1.0469  2.8375 -0.6754
  115LYS     CE   20   1.840   0.307   3.378 -0.5665 -0.1998 -0.6048
  115LYS    HE1   21   1.791   0.392   3.324  0.6000  2.2021  1.8509
  115LYS    HE2   22   1.780   0.270   3.464  0.2021 -1.3942 -0.5679
  115LYS     NZ   23   1.848   0.183   3.295  0.0039 -0.1225  0.5023
  115LYS    HZ1   24   1.877   0.097   3.347  1.4797 -0.1120 -0.2563
  115LYS    HZ2   25   1.906   0.201   3.211  0.0814  0.6674  0.7198
  115LYS    HZ3   26   1.760   0.161   3.243 -0.7226  1.8280  0.8269
  115LYS      C   27   2.169   0.722   3.726  0.4836 -0.0248 -0.0954
  115LYS      O   28   2.232   0.661   3.808 -0.4468 -0.2685 -0.5285
  116LYS      N   29   2.208   0.843   3.677  0.0701  0.2573  0.1022
  116LYS     HN   30   2.156   0.883   3.602 -1.6151 -1.1233  0.4799
  116LYS     CA   31   2.327   0.906   3.729 -0.7674 -0.3882  0.4975
  116LYS     HA   32   2.390   0.837   3.784 -0.2187  0.5415  1.0776
  116LYS     CB   33   2.403   0.968   3.604 -1.0095  0.0947  0.9953
  116LYS    HB1   34   2.500   1.009   3.639 -0.4060 -1.3567  1.1195
  116LYS    HB2   35   2.341   1.051   3.563 -0.5482 -0.8778 -1.9375
  116LYS     CG   36   2.435   0.864   3.493  0.3556 -0.3654 -0.4093
  116LYS    HG1   37   2.476   0.915   3.403 -1.9519  1.2560 -0.6190
  116LYS    HG2   38   2.334   0.829   3.462 -0.1144 -0.1986  0.9121
  116LYS     CD   39   2.521   0.748   3.543  0.1871  0.5479 -0.3097
  116LYS    HD1   40   2.469   0.702   3.630 -0.2363 -1.4330 -1.5431
  116LYS    HD2   41   2.622   0.786   3.571 -0.3391 -0.3521  3.2162
  116LYS     CE   42   2.544   0.640   3.439 -0.1952 -0.4857 -0.2260
  116LYS    HE1   43   2.454   0.576   3.424 -0.2087 -0.4497 -0.2995
  116LYS    HE2   44   2.625   0.578   3.483  2.4788  1.0825 -2.6038
  116LYS     NZ   45   2.594   0.686   3.311 -0.2346 -0.7983  0.4369
  116LYS    HZ1   46   2.650   0.773   3.322 -1.0630 -0.1359 -0.3727
  116LYS    HZ2   47   2.516   0.712   3.248  0.7624  1.0536 -0.0899
  116LYS    HZ3   48   2.652   0.611   3.268  0.1844 -1.2126  1.6749
  116LYS      C   49   2.293   1.017   3.826  0.4041  0.3104  0.2222
  116LYS      O   50   2.376   1.101   3.852 -0.0388  0.2484  0.0839
  117TYR      N   51   2.172   1.016   3.878  0.1658  0.1781 -0.7247
  117TYR     HN   52   2.105   0.946   3.856  1.5412 -1.6169  0.5933
  117TYR     CA   53   2.123   1.112   3.976 -1.0491  0.0373 -0.0140
  117TYR     HA   54   2.202   1.180   4.006  1.6673 -2.0431 -1.9662
  117TYR     CB   55   2.004   1.181   3.911 -0.2828  0.2203 -0.2215
  117TYR    HB1   56   1.945   1.242   3.983 -0.9125 -3.1357  2.4058
  117TYR    HB2   57   1.938   1.103   3.865 -1.8728  1.2068  0.2874
  117TYR     CG   58   2.054   1.254   3.782 -0.1063  0.6940 -1.1208
  117TYR    CD1   59   2.055   1.193   3.657  0.5276 -0.0235 -0.3173
  117TYR    HD1   60   2.013   1.094   3.644  0.0480  0.3639 -1.8936
  117TYR    CE1   61   2.103   1.261   3.543  1.0473 -0.4064  0.1624
  117TYR    HE1   62   2.101   1.206   3.450 -0.8211  0.9090 -0.6525
  117TYR     CZ   63   2.155   1.386   3.554  0.5572 -0.3128  0.5252
  117TYR     OH   64   2.214   1.445   3.437 -0.0565  0.0269  0.7029
  117TYR     HH   65   2.217   1.374   3.372  0.2110  0.4641  0.2327
  117TYR    CD2   66   2.112   1.377   3.795 -0.3336  0.5536 -0.6706
  117TYR    HD2   67   2.122   1.426   3.891 -2.3451 -1.5723  0.7427
  117TYR    CE2   68   2.160   1.449   3.683  0.5916  0.0294  0.9417
  117TYR    HE2   69   2.214   1.542   3.691  0.9658 -0.3370  3.0659
  117TYR      C   70   2.079   1.046   4.105  0.1546 -0.4405 -0.7841
  117TYR      O   71   2.016   1.109   4.189 -0.2055 -0.4710 -0.7090
  118ARG      N   72   2.107   0.914   4.130  0.2754 -0.3600 -0.2768
  118ARG     HN   73   2.149   0.863   4.055 -2.7327 -0.8888 -1.7767
  118ARG     CA   74   2.038   0.841   4.240  0.4187 -0.5237  0.0199
  118ARG     HA   75   1.973   0.916   4.280  1.3105  0.8560 -1.0340
  118ARG     CB   76   1.977   0.706   4.190 -0.0666 -0.2716 -0.6816
  118ARG    HB1   77   1.889   0.738   4.129  0.3784  0.5155 -0.9312
  118ARG    HB2   78   1.936   0.642   4.270  2.8666 -0.0616  1.1278
  118ARG     CG   79   2.065   0.621   4.092 -0.0902 -0.6094 -0.5554
  118ARG    HG1   80   2.162   0.605   4.145  0.8072  1.5838 -1.4097
  118ARG    HG2   81   2.074   0.686   4.002 -1.1761  2.0601  1.1222
  118ARG     CD   82   1.998   0.489   4.058  0.2905  0.0763  0.0177
  118ARG    HD1   83   1.905   0.513   4.003 -0.2824 -0.1864  0.8420
  118ARG    HD2   84   1.964   0.433   4.148 -2.2235 -0.0114 -0.8932
  118ARG     NE   85   2.093   0.403   3.975  0.2092 -0.1865  0.6939
  118ARG     HE   86   2.191   0.415   3.986  0.2946 -0.5676  0.3914
  118ARG     CZ   87   2.042   0.293   3.911  0.0871 -0.4973 -0.0929
  118ARG    NH1   88   1.920   0.259   3.905 -0.0153 -0.7489 -0.2355
  118ARG   HH11   89   1.863   0.318   3.961  0.5032  0.5227 -1.0011
  118ARG   HH12   90   1.876   0.218   3.825  0.5532 -0.0415 -0.9357
  118ARG    NH2   91   2.122   0.233   3.819 -0.5209  0.3217 -1.0688
  118ARG   HH21   92   2.083   0.153   3.774 -1.7255  0.8224 -0.9519
  118ARG   HH22   93   2.208   0.279   3.795 -1.3208  2.5660  0.1010
  118ARG      C   94   2.136   0.798   4.353  0.1995 -0.8320  0.3122
  118ARG      O   95   2.111   0.711   4.437  0.1354 -0.1922  0.0931
  119TYR      N   96   2.260   0.845   4.343 -0.1788 -0.0999 -0.7476
  119TYR     HN   97   2.285   0.897   4.261 -1.9311  1.6252 -0.2584
  119TYR     CA   98   2.365   0.815   4.436 -0.2141 -0.7380  0.0906
  119TYR     HA   99   2.382   0.708   4.430 -2.0834 -1.1542  1.2225
  119TYR     CB  100   2.499   0.889   4.392 -0.3304 -0.3381  0.2125
  119TYR    HB1  101   2.582   0.862   4.461  0.9827 -1.3539 -1.6705
  119TYR    HB2  102   2.471   0.996   4.401 -0.6813 -0.5302  1.5653
  119TYR     CG  103   2.540   0.863   4.251 -1.1771  0.2976  0.1124
  119TYR    CD1  104   2.552   0.732   4.196 -0.0959  0.1919 -0.4297
  119TYR    HD1  105   2.532   0.649   4.263 -0.2458 -0.4460 -1.2481
  119TYR    CE1  106   2.603   0.711   4.070 -0.1354  0.3230  0.2085
  119TYR    HE1  107   2.619   0.609   4.038 -0.4729  0.4422 -0.3409
  119TYR     CZ  108   2.631   0.819   3.990  0.0695 -0.3098  0.1761
  119TYR     OH  109   2.685   0.791   3.863 -0.3108  0.4072  0.0014
  119TYR     HH  110   2.684   0.697   3.841 -0.5753  0.3057  0.4191
  119TYR    CD2  111   2.564   0.968   4.163  0.2914  0.3205 -0.8228
  119TYR    HD2  112   2.571   1.069   4.200  3.2181  0.1436 -0.6454
  119TYR    CE2  113   2.620   0.952   4.036  0.5911  0.1163  0.9590
  119TYR    HE2  114   2.649   1.032   3.969 -1.0031 -1.5715 -1.9853
  119TYR      C  115   2.334   0.855   4.584  0.0021  0.5020 -0.0160
  119TYR      O  116   2.355   0.968   4.628 -0.2574  0.0725  0.1693
  120TYR      N  117   2.303   0.756   4.667  0.2880 -0.3474 -0.0775
  120TYR     HN  118   2.285   0.665   4.629  1.0114 -0.4042 -0.3052
  120TYR     CA  119   2.282   0.774   4.809 -0.2416 -0.8030 -0.6410
  120TYR     HA  120   2.225   0.865   4.823  0.1603  0.0806 -3.9990
  120TYR     CB  121   2.201   0.652   4.869 -0.0717  0.0261  0.5293
  120TYR    HB1  122   2.252   0.554   4.865 -1.4845 -0.6979 -0.6685
  120TYR    HB2  123   2.119   0.645   4.795 -0.8421 -0.6904  1.4332
  120TYR     CG  124   2.149   0.668   5.007 -0.0971  0.4496 -0.0774
  120TYR    CD1  125   2.064   0.776   5.035  0.6876 -0.3374  0.6450
  120TYR    HD1  126   2.048   0.854   4.962 -0.7679  0.0122  1.3038
  120TYR    CE1  127   1.999   0.786   5.166  0.4616  0.6216 -0.2609
  120TYR    HE1  128   1.929   0.866   5.189 -0.1615  0.3363 -1.0910
  120TYR     CZ  129   2.029   0.687   5.262 -0.7360 -0.4461 -0.0935
  120TYR     OH  130   1.974   0.694   5.392  0.3749 -0.1831  0.2706
  120TYR     HH  131   1.958   0.784   5.421 -1.3446 -0.6226  0.8595
  120TYR    CD2  132   2.167   0.563   5.103  1.0060  0.4455  0.0897
  120TYR    HD2  133   2.231   0.480   5.077  0.8482  0.3601 -0.0260
  120TYR    CE2  134   2.111   0.581   5.233  0.4574  0.2999  0.0010
  120TYR    HE2  135   2.123   0.506   5.310  0.6084 -0.5478 -0.8183
  120TYR      C  136   2.401   0.797   4.891 -0.1670  0.8793 -0.0868
  120TYR      O  137   2.452   0.693   4.937  0.2359 -0.2664  0.3021
  121LEU      N  138   2.444   0.925   4.918 -0.1568  0.4838 -0.4541
  121LEU     HN  139   2.414   1.003   4.864 -2.5758 -0.3113 -0.3868
  121LEU     CA  140   2.552   0.954   5.009  0.4640  1.0909 -0.2102
  121LEU     HA  141   2.627   0.880   4.989  1.2347  1.9916 -0.7673
  121LEU     CB  142   2.609   1.095   4.989  0.3061 -0.1510  0.2239
  121LEU    HB1  143   2.702   1.114   5.047  0.2265  2.4367 -0.3704
  121LEU    HB2  144   2.533   1.169   5.022 -1.4375 -1.1126 -1.4070
  121LEU     CG  145   2.639   1.132   4.836  0.6222 -0.5934  0.0852
  121LEU     HG  146   2.538   1.120   4.791 -0.1546 -2.6724  2.1945
  121LEU    CD1  147   2.693   1.277   4.839 -0.0627  0.1013 -0.1709
  121LEU   HD11  148   2.729   1.316   4.742  1.6729 -0.1994  0.3137
  121LEU   HD12  149   2.788   1.267   4.896 -0.5238 -2.5397  0.2519
  121LEU   HD13  150   2.622   1.342   4.895  1.3751  1.9932 -0.4077
  121LEU    CD2  151   2.745   1.037   4.788  0.1522 -0.0321 -0.1262
  121LEU   HD21  152   2.764   1.060   4.682 -0.8708  1.4827 -0.0184
  121LEU   HD22  153   2.716   0.930   4.803 -1.9936  0.7007  1.7277
  121LEU   HD23  154   2.838   1.045   4.848 -0.5601  0.6889  0.9289
  121LEU      C  155   2.515   0.933   5.153  0.1461 -0.2937  0.1218
  121LEU      O  156   2.491   1.030   5.220 -0.0618  0.2642  0.0475
  122LYS      N  157   2.522   0.813   5.210 -0.2965 -0.0292 -0.0741
  122LYS     HN  158   2.536   0.734   5.151 -1.8446 -0.6807  0.3685
  122LYS     CA  159   2.502   0.780   5.354  0.1953 -0.2472 -0.0700
  122LYS     HA  160   2.399   0.811   5.370 -0.6504 -3.3464  1.4435
  122LYS     CB  161   2.513   0.625   5.379  0.3481 -0.1988  0.3714
  122LYS    HB1  162   2.606   0.595   5.326 -0.3313 -1.7767  0.0289
  122LYS    HB2  163   2.436   0.573   5.317 -0.3035  1.3668 -0.1868
  122LYS     CG  164   2.515   0.576   5.522  1.1322 -0.2953 -0.6658
  122LYS    HG1  165   2.596   0.623   5.582  0.1192 -2.5641  2.8378
  122LYS    HG2  166   2.536   0.467   5.529 -0.9154 -0.8046 -1.4616
  122LYS     CD  167   2.373   0.590   5.588 -0.6704  0.3956  0.2568
  122LYS    HD1  168   2.313   0.523   5.522 -0.7924  0.6963  0.0560
  122LYS    HD2  169   2.351   0.699   5.591 -2.3587  0.1847 -1.8906
  122LYS     CE  170   2.373   0.535   5.730 -0.3725 -0.0680  0.7398
  122LYS    HE1  171   2.425   0.609   5.795  2.4344  0.6138 -2.0365
  122LYS    HE2  172   2.427   0.438   5.740 -1.6329 -0.7569  1.0755
  122LYS     NZ  173   2.241   0.508   5.779 -0.0095  0.1004 -0.3399
  122LYS    HZ1  174   2.181   0.593   5.781  0.3536  0.3452  0.4698
  122LYS    HZ2  175   2.255   0.475   5.877 -2.2205 -1.8234 -0.5779
  122LYS    HZ3  176   2.192   0.432   5.727  0.4483 -0.3311 -0.1590
  122LYS      C  177   2.572   0.866   5.458 -0.3911  0.0639 -0.2412
  122LYS      O  178   2.515   0.906   5.556 -0.3712 -0.0750  0.2285
  123PRO      N  179   2.699   0.905   5.438  0.3001 -0.0686 -0.2560
  123PRO     CD  180   2.789   0.830   5.357 -0.6651 -0.0873 -0.2914
  123PRO    HD1  181   2.787   0.884   5.260 -2.3734 -0.8682 -0.7332
  123PRO    HD2  182   2.760   0.727   5.328  1.2473 -0.2380 -1.8306
  123PRO     CA  183   2.775   0.983   5.537  0.0772  0.1941 -0.5798
  123PRO     HA  184   2.758   0.948   5.638  0.2529 -1.4147 -1.0849
  123PRO     CB  185   2.918   0.974   5.486  0.4189  0.2965 -0.5286
  123PRO    HB1  186   2.997   0.986   5.563  0.2777 -3.2293  0.3195
  123PRO    HB2  187   2.933   1.045   5.401  0.5835 -0.7643 -1.4068
  123PRO     CG  188   2.918   0.836   5.425 -0.5890  0.3606 -0.2678
  123PRO    HG1  189   3.003   0.828   5.354 -0.3789 -1.1697  0.1004
  123PRO    HG2  190   2.921   0.758   5.505  0.4472  0.2838 -0.3685
  123PRO      C  191   2.729   1.135   5.535 -0.4143 -0.2760  0.3580
  123PRO      O  192   2.800   1.220   5.584  0.1747  0.5075 -0.1922
  124LEU      N  193   2.617   1.171   5.463  0.0466  0.2575 -0.8189
  124LEU     HN  194   2.571   1.099   5.412  0.5974 -1.7482  1.2917
  124LEU     CA  195   2.569   1.307   5.464 -0.6740  0.4504  0.3521
  124LEU     HA  196   2.647   1.371   5.503  0.2208 -0.8610  0.8169
  124LEU     CB  197   2.527   1.337   5.323 -0.2690  0.2168 -0.1796
  124LEU    HB1  198   2.422   1.305   5.306 -0.7388  2.0327 -0.9516
  124LEU    HB2  199   2.598   1.284   5.255  0.6269  0.1702  0.7600
  124LEU     CG  200   2.530   1.486   5.292 -0.8864 -0.5127  0.4505
  124LEU     HG  201   2.476   1.544   5.370 -0.3037 -0.7518  1.0389
  124LEU    CD1  202   2.679   1.540   5.286 -0.0435 -0.4451  0.7070
  124LEU   HD11  203   2.729   1.547   5.385  1.5929  1.4489 -0.1687
  124LEU   HD12  204   2.674   1.647   5.254  0.0403 -0.1429  1.6871
  124LEU   HD13  205   2.736   1.486   5.208  0.2911  1.1581 -0.2165
  124LEU    CD2  206   2.456   1.515   5.163 -0.4038  0.2441  0.3439
  124LEU   HD21  207   2.496   1.452   5.080 -1.5122  3.1780 -2.6260
  124LEU   HD22  208   2.471   1.621   5.132 -1.2850  0.2296 -0.1596
  124LEU   HD23  209   2.346   1.505   5.172 -0.3177  0.7699  2.3642
  124LEU      C  210   2.444   1.312   5.553 -0.9565  0.4146  0.4835
  124LEU      O  211   2.363   1.412   5.550 -0.5481  0.3596 -0.0595
  125CYS      N  212   2.419   1.204   5.633  0.0985  0.0048  0.7550
  125CYS     HN  213   2.475   1.125   5.610 -0.9148 -0.3922 -0.4292
  125CYS     CA  214   2.311   1.200   5.731 -0.1072 -0.3717 -0.0438
  125CYS     HA  215   2.221   1.228   5.678 -0.6892  1.5962  1.8598
  125CYS     CB  216   2.283   1.056   5.776 -0.2772 -0.4975  0.3674
  125CYS    HB1  217   2.206   1.057   5.856  0.7585 -0.3619  1.3889
  125CYS    HB2  218   2.381   1.021   5.814  2.5357  3.0005 -2.8766
  125CYS     SG  219   2.236   0.951   5.636 -0.0868  0.1452  0.0414
  125CYS    HG1  220   2.107   0.967   5.661 -0.0066 -1.3390  1.5403
  125CYS      C  221   2.340   1.289   5.851  0.7595 -0.2856  0.5047
  125CYS      O  222   2.458   1.307   5.896  0.2824  0.6028 -0.0943
  128LYS      N  223   2.230   1.357   5.895 -0.3392  0.0560  0.0756
  128LYS     HN  224   2.145   1.353   5.844 -0.3590 -2.3996  0.2088
  128LYS     CA  225   2.235   1.449   6.012 -0.8494  0.0595  0.5035
  128LYS     HA  226   2.330   1.500   6.002  0.2136 -2.2717 -3.1656
  128LYS     CB  227   2.117   1.549   6.007 -0.1740  0.3437  0.9893
  128LYS    HB1  228   2.025   1.492   5.984 -0.1030  0.6330 -0.0659
  128LYS    HB2  229   2.131   1.612   5.917 -1.7901 -1.6161 -0.7241
  128LYS     CG  230   2.090   1.645   6.122 -1.2846  0.4051 -0.2587
  128LYS    HG1  231   2.084   1.601   6.224  1.1555 -4.3065 -1.8589
  128LYS    HG2  232   1.994   1.698   6.102 -0.6528  1.2423 -1.2259
  128LYS     CD  233   2.199   1.751   6.119 -0.1553  0.0100  0.4978
  128LYS    HD1  234   2.191   1.819   6.031  1.2439 -0.5665 -0.1236
  128LYS    HD2  235   2.302   1.708   6.114 -0.4000 -0.5215 -0.1852
  128LYS     CE  236   2.182   1.855   6.238  0.5037  0.9473  0.8723
  128LYS    HE1  237   2.183   1.818   6.343 -0.3536 -1.2244  0.1758
  128LYS    HE2  238   2.086   1.910   6.225 -0.9499 -1.5967  0.0857
  128LYS     NZ  239   2.295   1.955   6.241  0.5266  0.5516 -0.1220
  128LYS    HZ1  240   2.312   1.990   6.145 -0.2940  0.0040 -0.4792
  128LYS    HZ2  241   2.385   1.918   6.278  0.1294  1.5239  1.9487
  128LYS    HZ3  242   2.265   2.037   6.298  1.1347  2.1136 -1.9459
  128LYS      C  243   2.224   1.372   6.146 -0.3643  0.6298  0.4483
  128LYS      O  244   2.159   1.269   6.154 -0.2308  0.4690  0.6302
  129LYS      N  245   2.297   1.413   6.258  0.3157 -0.1033 -0.2454
  129LYS     HN  246   2.371   1.480   6.257  1.0573 -0.9051 -0.6386
  129LYS     CA  247   2.300   1.345   6.378 -0.2740  0.7403  0.4172
  129LYS     HA  248   2.271   1.241   6.364 -0.8987  0.8884  0.5680
  129LYS     CB  249   2.446   1.338   6.435  0.2491  0.1484  0.3910
  129LYS    HB1  250   2.431   1.289   6.533 -0.0778  0.9196  0.7367
  129LYS    HB2  251   2.479   1.443   6.448 -3.2486  1.3982  0.2828
  129LYS     CG  252   2.531   1.251   6.343  0.0782 -0.1238 -0.5665
  129LYS    HG1  253   2.548   1.302   6.245  0.1593 -1.9135 -1.5199
  129LYS    HG2  254   2.481   1.154   6.321  0.8905 -0.2734 -1.9041
  129LYS     CD  255   2.669   1.227   6.404  0.9646 -0.7660  0.2460
  129LYS    HD1  256   2.711   1.139   6.351  0.2738 -0.0003 -1.6482
  129LYS    HD2  257   2.656   1.196   6.510 -0.9305  0.8673  0.5550
  129LYS     CE  258   2.762   1.343   6.407  0.5987  0.4794 -0.1791
  129LYS    HE1  259   2.860   1.316   6.452 -0.0248 -0.4402  0.6867
  129LYS    HE2  260   2.715   1.424   6.466 -0.2836  0.1950 -0.4783
  129LYS     NZ  261   2.786   1.391   6.268  0.3820  0.1946  0.6942
  129LYS    HZ1  262   2.799   1.301   6.218  0.1036  0.7464 -0.3930
  129LYS    HZ2  263   2.878   1.439   6.272  1.5440 -1.6490 -1.5622
  129LYS    HZ3  264   2.706   1.433   6.217  0.6436  0.1738  0.2565
  129LYS      C  265   2.202   1.401   6.481  0.4877 -0.4041 -0.8164
  129LYS      O  266   2.176   1.520   6.488  1.1091 -0.2897  0.4082
  129LYS     NT  267   2.131   1.312   6.554 -0.2224  0.3426  0.3060
  129LYS    HNT  268   2.135   1.224   6.508  0.4844 -0.3967  1.6929
  129LYS    CAT  269   2.041   1.343   6.667 -0.0624 -0.6247  0.8808
  129LYS    HT1  270   2.069   1.434   6.724  0.3475 -0.4506  0.4071
  129LYS    HT2  271   2.035   1.265   6.746  0.3908 -0.7054  0.8404
  129LYS    HT3  272   1.937   1.359   6.632 -0.2233  0.2385  1.7136
  130POPC     N  273   5.920   5.890   6.860 -0.5640 -0.5248  0.1058
  130POPC   C12  274   5.869   5.876   7.005  0.0165  0.6142 -0.3517
  130POPC  H12A  275   5.954   5.843   7.063 -1.6086  0.3798  2.0499
  130POPC  H12B  276   5.789   5.804   7.013 -0.7935  1.4722 -0.6737
  130POPC   C13  277   5.951   5.759   6.794 -0.1557  0.0805  0.2936
  130POPC  H13A  278   5.964   5.774   6.688  0.1798  2.2224  0.6050
  130POPC  H13B  279   6.046   5.717   6.826 -0.8105 -3.1980 -1.6000
  130POPC  H13C  280   5.877   5.684   6.819  1.5073 -1.4210  0.9583
  130POPC   C14  281   5.817   5.966   6.782 -0.3937 -0.6675  0.3137
  130POPC  H14A  282   5.839   6.071   6.799 -1.5502 -0.3325 -0.1873
  130POPC  H14B  283   5.842   5.962   6.677  0.9564 -0.9649  0.6292
  130POPC  H14C  284   5.715   5.941   6.803 -0.9253  2.4218  2.0859
  130POPC   C15  285   6.049   5.973   6.852  0.0156  0.1321 -0.1550
  130POPC  H15A  286   6.122   5.923   6.914 -0.1496 -0.6657 -0.5970
  130POPC  H15B  287   6.035   6.067   6.902  1.9359  1.1632 -1.4081
  130POPC  H15C  288   6.089   5.998   6.755 -0.7329  0.5254 -0.3618
  130POPC   C11  289   5.823   6.003   7.082 -0.4822 -0.6911  0.0985
  130POPC  H11A  290   5.777   5.981   7.180 -0.3796  0.2531  0.3682
  130POPC  H11B  291   5.736   6.043   7.025  1.0324 -0.0028 -1.8531
  130POPC     P  292   5.910   6.255   7.082  0.0000 -0.3949  0.0253
  130POPC   O13  293   6.039   6.327   7.094 -0.0166 -0.2253 -0.1960
  130POPC   O14  294   5.799   6.296   7.173  0.5747  0.1153 -0.7134
  130POPC   O12  295   5.935   6.098   7.083 -0.0916  0.2292 -0.5376
  130POPC   O11  296   5.851   6.281   6.932 -0.5548  0.2550  0.2740
  130POPC    C1  297   5.940   6.337   6.834  0.5793  0.3512  0.1668
  130POPC    HA  298   6.021   6.262   6.834 -1.7732 -2.3388 -0.3479
  130POPC    HB  299   5.995   6.431   6.858  0.5709  0.7122 -1.1753
  130POPC    C2  300   5.867   6.350   6.702  0.0111 -1.1195  0.4502
  130POPC    HS  301   5.810   6.445   6.711  2.0747  0.0786  1.5964
  130POPC   O21  302   5.787   6.240   6.663 -0.9369 -0.0141 -1.0372
  130POPC   C21  303   5.671   6.274   6.608  0.3621 -0.9758  0.1955
  130POPC   O22  304   5.631   6.390   6.594  0.0037  0.0459  0.0611
  130POPC   C22  305   5.615   6.163   6.522  0.7305  0.4573 -0.3244
  130POPC   H2R  306   5.572   6.081   6.584  1.2775  0.0709 -0.4459
  130POPC   H2S  307   5.697   6.123   6.458  1.4510  1.4138 -0.0172
  130POPC    C3  308   5.973   6.384   6.590  0.0562  0.3058 -0.5922
  130POPC    HX  309   6.044   6.300   6.581 -2.0043 -1.6084  0.1240
  130POPC    HY  310   6.031   6.465   6.638 -1.8627  0.0567  2.4601
  130POPC   O31  311   5.923   6.418   6.457 -0.4427 -0.3329  0.0033
  130POPC   C31  312   5.901   6.326   6.365  0.4918  0.1790 -0.4833
  130POPC   O32  313   5.937   6.209   6.377  0.1834  0.3947 -0.5048
  130POPC   C32  314   5.825   6.393   6.248 -0.1174 -0.8695  0.6624
  130POPC   H2X  315   5.770   6.484   6.280 -2.6757 -1.8175 -0.6811
  130POPC   H2Y  316   5.763   6.313   6.201 -2.1760  1.6818 -1.2689
  130POPC   C23  317   5.503   6.205   6.422 -0.7737  0.0689  0.0521
  130POPC   H3R  318   5.533   6.274   6.340  2.7601  0.2678  1.3381
  130POPC   H3S  319   5.425   6.260   6.478  0.1373 -1.0289  2.5444
  130POPC   C24  320   5.442   6.083   6.356  0.0243  0.2607 -0.1012
  130POPC   H4R  321   5.377   6.046   6.438 -1.4844  1.2101 -0.8035
  130POPC   H4S  322   5.513   6.002   6.331 -1.7309 -1.3352 -0.1381
  130POPC   C25  323   5.350   6.112   6.237 -0.0614  0.2811  0.1908
  130POPC   H5R  324   5.291   6.197   6.279  0.4174  0.7753 -0.1166
  130POPC   H5S  325   5.282   6.027   6.218  0.5750 -0.4469  1.0686
  130POPC   C26  326   5.417   6.161   6.101 -0.4400 -0.0734 -0.0483
  130POPC   H6R  327   5.488   6.242   6.125 -1.5088  0.8211  0.1716
  130POPC   H6S  328   5.342   6.184   6.022 -0.2199 -0.1193 -0.2753
  130POPC   C27  329   5.503   6.048   6.044 -0.5309  0.4516  0.0290
  130POPC   H7R  330   5.444   5.955   6.059  1.4529 -1.2896 -2.1897
  130POPC   H7S  331   5.601   6.047   6.097 -0.0306  1.3799 -0.8445
  130POPC   C28  332   5.513   6.061   5.892  0.1590 -0.0701  0.3504
  130POPC   H8R  333   5.409   6.073   5.855  0.7667  4.4356 -0.4751
  130POPC   H8S  334   5.558   5.974   5.840  1.2047  1.1153 -0.8249
  130POPC   C29  335   5.582   6.184   5.853  0.0475  0.4240  0.8399
  130POPC   H91  336   5.523   6.277   5.863 -1.8509 -0.7034  0.5778
  130POPC  C210  337   5.704   6.197   5.797  0.9095  0.1287  0.4404
  130POPC  H101  338   5.733   6.300   5.771 -0.2795  0.3041 -0.3070
  130POPC  C211  339   5.797   6.094   5.751  0.3491 -0.4321  1.1087
  130POPC  H11R  340   5.765   5.998   5.796 -0.0175  0.4305  2.7354
  130POPC  H11S  341   5.892   6.128   5.797 -0.1927  2.6462  0.1849
  130POPC  C212  342   5.811   6.096   5.596  0.2792 -0.0088  0.6646
  130POPC  H12R  343   5.837   6.203   5.581 -1.5825  0.7820  2.6639
  130POPC  H12S  344   5.707   6.087   5.558  0.4805  0.0810  0.0770
  130POPC  C213  345   5.914   6.002   5.534  0.0543 -0.2206 -0.3302
  130POPC  H13R  346   5.929   5.912   5.597 -1.2537 -0.3664 -0.1964
  130POPC  H13S  347   6.014   6.051   5.543 -0.1283 -0.1538  2.0845
  130POPC  C214  348   5.889   5.978   5.387 -0.2752 -0.4617 -0.8268
  130POPC  H14R  349   5.866   6.078   5.344  0.7931  0.6064  0.9634
  130POPC  H14S  350   5.814   5.898   5.370 -1.1285  0.6418 -2.6055
  130POPC  C215  351   6.015   5.918   5.312 -0.5093 -0.1008 -0.2765
  130POPC  H15R  352   6.051   5.820   5.351  2.3728  0.6641 -0.8072
  130POPC  H15S  353   6.099   5.991   5.314  2.8579 -3.6531 -0.0639
  130POPC  C216  354   5.989   5.903   5.161  0.2138 -0.4373  0.3912
  130POPC  H16R  355   5.940   5.996   5.122 -0.2571 -0.9654 -0.3004
  130POPC  H16S  356   5.922   5.817   5.142 -1.7176  1.0455  0.1009
  130POPC  C217  357   6.117   5.886   5.077  0.0734 -0.3813 -0.3328
  130POPC  H17R  358   6.180   5.805   5.120 -0.2526 -1.1540 -1.2655
  130POPC  H17S  359   6.158   5.990   5.077 -1.2614  0.1633 -0.5246
  130POPC  C218  360   6.092   5.843   4.933  0.8064 -0.2674 -0.2301
  130POPC  H18R  361   6.078   5.733   4.927 -1.2544 -0.1012  0.7450
  130POPC  H18S  362   6.183   5.861   4.872  1.8894  0.7781  1.6015
  130POPC  H18T  363   6.001   5.898   4.901  0.3276  0.5007  2.2350
  130POPC   C33  364   5.940   6.430   6.142  0.3473  0.2462 -0.0822
  130POPC   H3X  365   6.024   6.358   6.156  0.2235  0.2792  0.8779
  130POPC   H3Y  366   5.982   6.522   6.186  2.1930 -1.1493  1.2665
  130POPC   C34  367   5.900   6.430   5.997  0.2905  0.0950 -0.1021
  130POPC   H4X  368   5.830   6.515   5.981 -0.4494 -0.3905  0.4659
  130POPC   H4Y  369   5.849   6.333   5.975  1.9315 -0.9701  0.5868
  130POPC   C35  370   6.015   6.435   5.898  0.0602 -0.2523 -0.6597
  130POPC   H5X  371   6.067   6.337   5.904 -0.0315 -0.3143 -0.8660
  130POPC   H5Y  372   6.086   6.511   5.937  1.1017 -1.8685  0.7727
  130POPC   C36  373   5.980   6.457   5.748 -0.0074 -0.2262  0.1755
  130POPC   H6X  374   5.911   6.379   5.711 -1.5826  1.8729 -1.6223
  130POPC   H6Y  375   6.076   6.463   5.693 -0.4247  1.8432 -0.4404
  130POPC   C37  376   5.891   0.143   5.739  0.0778 -0.1476 -0.3123
  130POPC   H7X  377   5.943   0.221   5.799  1.9310 -1.5225 -0.0401
  130POPC   H7Y  378   5.796   0.120   5.791  0.8691 -0.6363  0.9516
  130POPC   C38  379   5.863   0.173   5.593  0.2569  0.2022 -0.0706
  130POPC   H8X  380   5.959   0.202   5.545 -0.5247 -0.4875 -2.1955
  130POPC   H8Y  381   5.795   0.257   5.569 -1.5483 -0.8643  1.0643
  130POPC   C39  382   5.797   0.062   5.508 -0.1521  0.1467 -0.3151
  130POPC   H9X  383   5.711   0.026   5.568 -0.1374  1.4722  0.5371
  130POPC   H9Y  384   5.868  -0.022   5.514  0.8294  0.7253 -2.5073
  130POPC  C310  385   5.765   0.104   5.357  0.2918  0.1793  0.3323
  130POPC  H10X  386   5.859   0.144   5.313  0.3103  1.1092  1.1725
  130POPC  H10Y  387   5.680   0.174   5.339  0.0770 -0.4928 -1.4506
  130POPC  C311  388   5.726   6.428   5.269  0.0589 -0.2397 -0.3410
  130POPC  H11X  389   5.621   6.395   5.283  0.1658 -0.1686  0.7795
  130POPC  H11Y  390   5.779   6.342   5.315  0.3974  0.6682  1.0326
  130POPC  C312  391   5.767   6.438   5.121 -0.1749  0.5181  0.1093
  130POPC  H12X  392   5.744   6.338   5.076 -0.0637  0.4838  0.1288
  130POPC  H12Y  393   5.876   6.446   5.105  0.0689  0.3505  1.6102
  130POPC  C313  394   5.688   0.111   5.052  0.0555  0.0834 -0.5503
  130POPC  H13X  395   5.716   0.197   5.117  0.5228 -1.1758  0.9870
  130POPC  H13Y  396   5.581   0.083   5.063 -0.4420  2.2144  0.6354
  130POPC  C314  397   5.735   0.121   4.906  0.0621 -0.3040  0.2461
  130POPC  H14X  398   5.846   0.114   4.917  0.1281 -0.0747 -0.2418
  130POPC  H14Y  399   5.699   0.211   4.853  2.0572  0.6960  0.4849
  130POPC  C315  400   5.701   6.448   4.807 -0.0118  0.9114  0.6450
  130POPC  H15X  401   5.726   6.348   4.851  2.3032  0.2012 -1.9682
  130POPC  H15Y  402   5.760   6.447   4.713 -1.3057  1.0962 -0.1906
  130POPC  C316  403   5.554   0.009   4.770 -0.3703 -0.3998 -0.3308
  130POPC  H16X  404   5.489  -0.023   4.854  0.9039 -2.4619 -0.0608
  130POPC  H16Y  405   5.535  -0.055   4.682 -3.2728  0.4137 -0.3972
  130POPC  H16Z  406   5.543   0.118   4.747  1.5116  0.8674  3.7290
  131POPC     N  407   3.239   0.694   6.197  0.5177 -0.3269 -0.2726
  131POPC   C12  408   3.178   0.549   6.220 -0.2360  0.3439  0.2385
  131POPC  H12A  409   3.266   0.488   6.234  0.2927  0.8433 -0.8060
  131POPC  H12B  410   3.130   0.517   6.129 -1.7164 -0.9923  1.4223
  131POPC   C13  411   3.338   0.695   6.082 -0.0425 -0.2622 -0.2619
  131POPC  H13A  412   3.278   0.683   5.993  1.5162 -0.9359 -1.2620
  131POPC  H13B  413   3.395   0.785   6.067  1.1065 -0.3803  2.7563
  131POPC  H13C  414   3.414   0.619   6.088 -0.5890 -0.7049  1.3315
  131POPC   C14  415   3.122   0.776   6.151 -0.4567 -0.1160  0.4035
  131POPC  H14A  416   3.047   0.774   6.228  0.7050 -0.7293  1.5652
  131POPC  H14B  417   3.165   0.874   6.138  1.4626 -0.9823 -0.1999
  131POPC  H14C  418   3.077   0.747   6.057 -1.0586  0.2791  0.5659
  131POPC   C15  419   3.291   0.742   6.326 -0.6890 -0.2843  0.5664
  131POPC  H15A  420   3.202   0.747   6.387 -0.5722 -0.2394  0.7338
  131POPC  H15B  421   3.341   0.837   6.313  2.4233 -1.9255 -0.4507
  131POPC  H15C  422   3.363   0.671   6.366 -1.4771 -2.3968 -1.5227
  131POPC   C11  423   3.076   0.531   6.335  0.2952  0.0086 -0.0594
  131POPC  H11A  424   3.135   0.536   6.429  1.3240 -1.8445 -0.5653
  131POPC  H11B  425   3.036   0.428   6.327  1.6904 -0.4325 -1.9192
  131POPC     P  426   2.827   0.603   6.363  0.1128 -0.3440  0.0495
  131POPC   O13  427   2.750   0.735   6.375 -1.0233 -0.1926 -0.4135
  131POPC   O14  428   2.828   0.516   6.477  0.3849 -0.7962 -0.4965
  131POPC   O12  429   2.977   0.632   6.331  0.7183 -0.2057 -0.4059
  131POPC   O11  430   2.766   0.532   6.236  0.3084  0.1403 -0.0871
  131POPC    C1  431   2.798   0.571   6.101  0.3114  0.3833  0.3144
  131POPC    HA  432   2.901   0.614   6.097  0.5996 -0.3512 -1.8209
  131POPC    HB  433   2.721   0.645   6.070 -1.3402 -0.5580  1.9714
  131POPC    C2  434   2.784   0.458   6.001 -0.3638  0.2049  0.0807
  131POPC    HS  435   2.839   0.366   6.034  0.9001  0.6291 -0.7707
  131POPC   O21  436   2.835   0.480   5.870 -0.0858  0.1820 -0.0546
  131POPC   C21  437   2.964   0.473   5.862 -0.3978  0.4701 -0.7503
  131POPC   O22  438   3.036   0.451   5.956  0.5080  0.0186  0.0614
  131POPC   C22  439   3.014   0.483   5.719 -0.3338  0.3541  0.4352
  131POPC   H2R  440   3.122   0.460   5.735 -0.7094 -2.0804 -0.1527
  131POPC   H2S  441   2.998   0.584   5.677  3.0343  0.8162 -0.0339
  131POPC    C3  442   2.635   0.412   5.999  0.2493 -0.5161  0.2987
  131POPC    HX  443   2.578   0.507   5.988  0.4119 -0.4320  0.1683
  131POPC    HY  444   2.598   0.356   6.087 -0.8884  0.0140  0.1697
  131POPC   O31  445   2.611   0.337   5.873 -0.2770  0.0380  0.0422
  131POPC   C31  446   2.624   0.204   5.884 -1.0115  0.1604 -0.2779
  131POPC   O32  447   2.671   0.154   5.983  0.2056  0.9208  0.4059
  131POPC   C32  448   2.559   0.141   5.765  0.5161 -0.0044 -0.0591
  131POPC   H2X  449   2.551   0.205   5.675 -1.2922 -1.2203 -0.8275
  131POPC   H2Y  450   2.452   0.118   5.785  0.3945  0.5805 -0.0060
  131POPC   C23  451   2.959   0.379   5.623  0.4654  0.0049 -0.2559
  131POPC   H3R  452   2.940   0.286   5.679  2.4988 -0.4304 -0.2303
  131POPC   H3S  453   3.035   0.354   5.546  0.9450 -2.3473  0.9229
  131POPC   C24  454   2.826   0.431   5.553  0.4101  0.7896  0.7803
  131POPC   H4R  455   2.849   0.533   5.515 -0.1175  0.6135 -0.0541
  131POPC   H4S  456   2.748   0.440   5.631 -1.3981 -1.4574 -0.6366
  131POPC   C25  457   2.775   0.343   5.442  0.6207  0.3822  0.0835
  131POPC   H5R  458   2.675   0.381   5.411 -0.7303 -2.3642  0.7578
  131POPC   H5S  459   2.748   0.244   5.486 -3.0720  0.9405 -0.5801
  131POPC   C26  460   2.864   0.324   5.321  0.1771 -0.1094 -0.2195
  131POPC   H6R  461   2.803   0.305   5.230  1.0555  0.7029 -1.0057
  131POPC   H6S  462   2.931   0.237   5.334  0.6772  0.2147 -0.5886
  131POPC   C27  463   2.929   0.458   5.270  0.5844 -0.7998 -0.7758
  131POPC   H7R  464   3.002   0.472   5.353  1.4437 -2.3518 -1.2297
  131POPC   H7S  465   2.860   0.545   5.271  1.6714  0.0968 -0.0071
  131POPC   C28  466   2.996   0.452   5.139  0.2714 -0.3544 -0.0692
  131POPC   H8R  467   2.914   0.434   5.067 -0.4276  0.4448  0.5126
  131POPC   H8S  468   3.049   0.355   5.158 -0.2017 -0.3949  1.1619
  131POPC   C29  469   3.078   0.568   5.102  0.7683  0.0526 -0.3891
  131POPC   H91  470   3.158   0.598   5.170  1.1236  1.4089 -1.3590
  131POPC  C210  471   3.080   0.624   4.979  0.0612  0.2808 -0.0615
  131POPC  H101  472   3.161   0.695   4.954  0.3862 -0.1885 -0.3501
  131POPC  C211  473   2.996   0.591   4.855 -0.5612  0.1927  0.4107
  131POPC  H11R  474   2.928   0.505   4.871  0.1192 -0.7199 -1.3104
  131POPC  H11S  475   3.074   0.547   4.789 -0.9311 -1.5070  1.0539
  131POPC  C212  476   2.918   0.709   4.784 -0.6029  0.1358 -0.1570
  131POPC  H12R  477   2.986   0.792   4.754 -1.0099  0.0126 -1.4822
  131POPC  H12S  478   2.853   0.746   4.866 -0.5132 -0.5885  0.2478
  131POPC  C213  479   2.830   0.655   4.667  0.1550  0.7539 -0.0477
  131POPC  H13R  480   2.901   0.621   4.589  0.7742  3.0324 -0.5375
  131POPC  H13S  481   2.774   0.743   4.628 -2.9498  0.4908  3.2444
  131POPC  C214  482   2.732   0.553   4.701  0.3480  0.7813  0.3025
  131POPC  H14R  483   2.673   0.594   4.785 -1.2272  1.3384 -1.0064
  131POPC  H14S  484   2.771   0.457   4.740  2.8072  1.1126 -1.1008
  131POPC  C215  485   2.648   0.518   4.572  0.4449  0.6398  0.0660
  131POPC  H15R  486   2.712   0.482   4.489  1.2746  1.6826  0.2368
  131POPC  H15S  487   2.603   0.616   4.548  0.1830  0.6242  0.4730
  131POPC  C216  488   2.538   0.415   4.591  0.4580  0.2026  0.2481
  131POPC  H16R  489   2.481   0.432   4.685 -1.6901  1.5845 -1.2244
  131POPC  H16S  490   2.586   0.314   4.588  0.3974  0.1944 -0.9520
  131POPC  C217  491   2.434   0.413   4.477 -0.1393 -0.4122 -0.3863
  131POPC  H17R  492   2.482   0.381   4.383 -0.2625 -0.0682 -0.5661
  131POPC  H17S  493   2.385   0.508   4.449 -1.9609 -0.5630  1.9103
  131POPC  C218  494   2.325   0.312   4.493 -0.0529 -0.2795 -0.7733
  131POPC  H18R  495   2.363   0.209   4.475 -0.4442 -0.6907  0.5993
  131POPC  H18S  496   2.246   0.337   4.419 -2.3786  1.5250  2.0670
  131POPC  H18T  497   2.269   0.326   4.588 -1.2799 -1.4923 -1.2960
  131POPC   C33  498   2.636   6.459   5.716  0.4767 -0.0140  0.8845
  131POPC   H3X  499   2.605   6.386   5.795 -0.6210  2.0186  2.4157
  131POPC   H3Y  500   2.747   6.466   5.718  0.4683  0.3841  0.1083
  131POPC   C34  501   2.608   6.417   5.571  0.0651 -0.2266  0.0568
  131POPC   H4X  502   2.666   6.482   5.501 -2.2814 -0.8498 -2.6793
  131POPC   H4Y  503   2.499   6.424   5.549 -0.1406  3.3077  1.4914
  131POPC   C35  504   2.640   6.266   5.550 -1.2159 -0.5809 -0.5707
  131POPC   H5X  505   2.572   6.206   5.615 -1.4365  0.7584  0.4726
  131POPC   H5Y  506   2.742   6.250   5.589 -0.8312  0.3816 -1.1453
  131POPC   C36  507   2.625   6.239   5.403 -0.5102 -0.2732 -0.8240
  131POPC   H6X  508   2.701   6.161   5.380 -0.2914 -0.2434 -0.2287
  131POPC   H6Y  509   2.643   6.331   5.343  1.1172 -1.4964 -2.3506
  131POPC   C37  510   2.495   6.181   5.355  0.4573 -0.3963  0.5564
  131POPC   H7X  511   2.413   6.256   5.364  1.0142  0.0987  1.7948
  131POPC   H7Y  512   2.467   6.089   5.411 -1.5560 -0.3194 -0.2142
  131POPC   C38  513   2.514   6.145   5.206  0.6018 -0.3992  0.7202
  131POPC   H8X  514   2.594   6.070   5.189 -0.9027 -2.1936  1.2245
  131POPC   H8Y  515   2.526   6.240   5.149  1.4657 -0.7421  0.3127
  131POPC   C39  516   2.384   6.087   5.136 -0.3083 -0.6058 -0.5246
  131POPC   H9X  517   2.364   5.992   5.191 -0.1286 -1.6486 -2.2132
  131POPC   H9Y  518   2.407   6.063   5.030 -0.1870  0.6748 -0.8006
  131POPC  C310  519   2.262   6.178   5.150 -0.0392 -0.2880  0.0098
  131POPC  H10X  520   2.288   6.285   5.140 -0.4071 -0.2996 -1.1804
  131POPC  H10Y  521   2.223   6.172   5.254  3.2174  1.8495  1.5388
  131POPC  C311  522   2.157   6.151   5.037 -0.3654  0.5428 -0.0321
  131POPC  H11X  523   2.140   6.041   5.026 -0.5029  0.4380  1.0919
  131POPC  H11Y  524   2.210   6.170   4.941  1.1347  0.2455  0.6974
  131POPC  C312  525   2.032   6.219   5.063 -0.0810  0.2837  0.5501
  131POPC  H12X  526   2.046   6.326   5.086 -0.1521  0.2475  0.7598
  131POPC  H12Y  527   1.985   6.170   5.151  2.3696 -0.8003  1.3289
  131POPC  C313  528   1.931   6.205   4.945  0.4860  0.2063  0.0206
  131POPC  H13X  529   1.902   6.098   4.938  0.7578  0.1213  0.1671
  131POPC  H13Y  530   1.999   6.236   4.863  1.3235 -1.0516  0.2176
  131POPC  C314  531   1.800   6.283   4.954 -0.1825  0.3744 -0.1283
  131POPC  H14X  532   1.754   6.287   4.853 -1.5732  1.5149  0.5096
  131POPC  H14Y  533   1.821   6.390   4.978  0.7210  0.2342 -0.2550
  131POPC  C315  534   1.693   6.222   5.049  0.8407 -0.2615 -0.3490
  131POPC  H15X  535   1.747   6.153   5.117 -1.5252 -0.7382  1.1664
  131POPC  H15Y  536   1.614   6.170   4.991 -1.4714  4.2766 -1.7374
  131POPC  C316  537   1.634   6.329   5.144  0.3215 -0.0128  0.6691
  131POPC  H16X  538   1.598   6.414   5.082 -0.4130 -0.8873 -0.1374
  131POPC  H16Y  539   1.710   6.356   5.220 -1.6250  1.9697  2.0262
  131POPC  H16Z  540   1.548   6.286   5.199  1.1234 -1.6749  0.6789
  132POPC     N  541   5.347   0.644   6.647 -0.4425  0.3513  1.2129
  132POPC   C12  542   5.361   0.508   6.576 -0.3119  0.0477 -0.3020
  132POPC  H12A  543   5.456   0.464   6.603  0.3425  0.6237 -1.5705
  132POPC  H12B  544   5.364   0.527   6.470  3.4975  0.1352 -0.3261
  132POPC   C13  545   5.467   0.735   6.623  0.3641  0.1678 -0.0049
  132POPC  H13A  546   5.441   0.832   6.661 -0.9966 -0.1941  0.0343
  132POPC  H13B  547   5.557   0.700   6.673 -0.2051 -0.6598  0.4583
  132POPC  H13C  548   5.486   0.747   6.517 -1.6401 -0.1681 -0.4376
  132POPC   C14  549   5.229   0.731   6.602 -0.1403 -0.4545  0.3247
  132POPC  H14A  550   5.235   0.758   6.497 -0.5349 -2.8638 -0.3939
  132POPC  H14B  551   5.138   0.673   6.594 -0.3658  0.0996 -2.3876
  132POPC  H14C  552   5.215   0.818   6.663 -2.3097 -0.0764 -0.5903
  132POPC   C15  553   5.331   0.628   6.793  0.1671  0.0873  0.2554
  132POPC  H15A  554   5.425   0.584   6.824 -0.1636 -0.9838 -0.2303
  132POPC  H15B  555   5.253   0.558   6.819  3.2188 -2.9530  2.0053
  132POPC  H15C  556   5.316   0.723   6.843 -0.1867 -0.5741  1.4521
  132POPC   C11  557   5.252   0.406   6.612 -0.7170  0.9071 -0.4943
  132POPC  H11A  558   5.263   0.366   6.715 -0.2820 -2.5903 -1.7702
  132POPC  H11B  559   5.272   0.323   6.541 -0.6386  0.3001  0.2232
  132POPC     P  560   5.044   0.471   6.462 -0.1211  0.5309  0.1735
  132POPC   O13  561   5.017   0.612   6.437  0.4025 -0.2111  0.0553
  132POPC   O14  562   4.929   0.375   6.469 -0.5475 -0.6252  0.1842
  132POPC   O12  563   5.126   0.460   6.599 -0.1947 -0.4753  0.0148
  132POPC   O11  564   5.152   0.416   6.361  0.2946 -0.6347  0.2018
  132POPC    C1  565   5.178   0.485   6.241  0.1084 -0.4101  0.0860
  132POPC    HA  566   5.275   0.448   6.201 -1.4643 -1.8427 -2.6120
  132POPC    HB  567   5.180   0.596   6.251  1.4514  0.0372 -3.6620
  132POPC    C2  568   5.079   0.446   6.129  0.0066 -0.3355  0.7139
  132POPC    HS  569   5.128   0.485   6.037 -1.0579 -0.4346  0.0836
  132POPC   O21  570   4.946   0.489   6.157  0.0335 -0.6202 -0.0477
  132POPC   C21  571   4.929   0.616   6.119  0.3000  0.3943  0.6462
  132POPC   O22  572   5.016   0.684   6.063  0.3276  0.0922  0.0165
  132POPC   C22  573   4.785   0.669   6.157  0.3714 -0.0489 -0.2523
  132POPC   H2R  574   4.796   0.693   6.265 -0.4532 -1.5631  0.2112
  132POPC   H2S  575   4.719   0.579   6.153  1.5995 -1.2207  2.6748
  132POPC    C3  576   5.086   0.294   6.121  0.4630  0.5884 -0.0225
  132POPC    HX  577   5.033   0.251   6.208  1.8174  0.4435  0.7659
  132POPC    HY  578   5.193   0.263   6.126  1.0008  2.5393  3.5257
  132POPC   O31  579   5.026   0.234   6.002  0.0565 -0.1921  0.1811
  132POPC   C31  580   4.902   0.187   6.014  0.2044  0.0095  0.1033
  132POPC   O32  581   4.820   0.216   6.099  0.3329  0.5911 -0.0300
  132POPC   C32  582   4.874   0.080   5.908 -0.2987 -0.4510  0.0157
  132POPC   H2X  583   4.940   0.106   5.823 -1.8491 -1.1556 -1.4565
  132POPC   H2Y  584   4.770   0.080   5.869  0.0826  3.1584 -1.3793
  132POPC   C23  585   4.730   0.783   6.071  0.3547  0.6435  0.3652
  132POPC   H3R  586   4.746   0.750   5.966 -1.7016 -2.0354  0.8055
  132POPC   H3S  587   4.807   0.863   6.085  4.2711 -2.6198 -0.5790
  132POPC   C24  588   4.587   0.831   6.100 -0.4679 -0.2372 -0.3226
  132POPC   H4R  589   4.575   0.851   6.209 -0.0950  1.4849 -0.5701
  132POPC   H4S  590   4.512   0.753   6.074 -1.9815  1.3862 -0.9979
  132POPC   C25  591   4.547   0.966   6.035  0.4026  0.2563  0.3138
  132POPC   H5R  592   4.625   1.045   6.042 -0.0977  0.9562 -1.4402
  132POPC   H5S  593   4.460   1.012   6.085  2.2480  0.0690  4.0238
  132POPC   C26  594   4.496   0.952   5.889  0.3906  0.0317 -0.0624
  132POPC   H6R  595   4.406   0.889   5.907  1.5433 -1.0907  2.2799
  132POPC   H6S  596   4.566   0.902   5.819 -0.2772  1.5439 -1.8997
  132POPC   C27  597   4.459   1.079   5.817  0.5485  0.0859 -0.8306
  132POPC   H7R  598   4.550   1.141   5.804 -0.2411  1.5934  0.5307
  132POPC   H7S  599   4.387   1.137   5.879 -0.3026 -2.0994  0.3283
  132POPC   C28  600   4.395   1.053   5.678  0.1122  0.2021 -0.1899
  132POPC   H8R  601   4.453   0.969   5.635 -0.5591 -0.5029  0.2711
  132POPC   H8S  602   4.414   1.149   5.624 -1.1065  0.5827  0.0337
  132POPC   C29  603   4.250   1.015   5.686  0.3065 -0.5948 -1.0620
  132POPC   H91  604   4.238   0.905   5.683  2.1959 -0.8096 -3.2456
  132POPC  C210  605   4.150   1.103   5.696  0.5711  0.3731  0.4867
  132POPC  H101  606   4.044   1.075   5.687  0.7902 -0.6063  0.8050
  132POPC  C211  607   4.173   1.250   5.684 -0.8354 -0.1902 -0.2098
  132POPC  H11R  608   4.107   1.288   5.604 -2.3904 -2.4654 -0.1032
  132POPC  H11S  609   4.279   1.279   5.668 -0.9855 -0.6481 -2.3277
  132POPC  C212  610   4.134   1.310   5.824 -0.3033  0.4761 -0.2704
  132POPC  H12R  611   4.177   1.249   5.905 -1.2317 -0.9509 -0.8165
  132POPC  H12S  612   4.023   1.298   5.828 -0.3510  1.1488  0.5873
  132POPC  C213  613   4.168   1.458   5.842  0.5333  0.3616 -0.0270
  132POPC  H13R  614   4.122   1.520   5.762  0.3330 -1.9687 -1.8200
  132POPC  H13S  615   4.277   1.474   5.829  0.7203  0.1923  1.1724
  132POPC  C214  616   4.139   1.509   5.985  0.0210 -0.7719 -0.0679
  132POPC  H14R  617   4.032   1.534   6.003  0.8597  2.1916  1.5004
  132POPC  H14S  618   4.181   1.611   5.995  0.3383 -0.9546  0.5294
  132POPC  C215  619   4.192   1.425   6.091 -0.7258  0.3528 -0.4797
  132POPC  H15R  620   4.127   1.335   6.086 -0.7632  0.2944  0.8023
  132POPC  H15S  621   4.178   1.476   6.189  1.5662 -0.4772  0.3510
  132POPC  C216  622   4.340   1.383   6.073  0.7360  0.5206  0.8541
  132POPC  H16R  623   4.399   1.477   6.066  0.9071  0.3743  0.2694
  132POPC  H16S  624   4.357   1.336   5.974 -1.0988 -0.6764  1.0735
  132POPC  C217  625   4.391   1.297   6.189 -0.2365 -0.1051 -0.1492
  132POPC  H17R  626   4.352   1.194   6.175  1.7221 -0.7554 -1.2641
  132POPC  H17S  627   4.329   1.342   6.269 -0.6051 -1.2452  0.2180
  132POPC  C218  628   4.539   1.305   6.220  0.1387 -0.4025 -0.0991
  132POPC  H18R  629   4.602   1.265   6.137  0.5280  0.6570 -0.3339
  132POPC  H18S  630   4.564   1.252   6.314  3.0954  2.1950  0.7346
  132POPC  H18T  631   4.571   1.410   6.233  0.9321 -0.6855  0.2792
  132POPC   C33  632   4.903   6.378   5.949 -0.3203  0.9324  0.0262
  132POPC   H3X  633   4.825   6.357   6.025 -2.0800  1.2008 -1.6323
  132POPC   H3Y  634   5.003   6.371   5.997  0.2275  0.0511 -1.2006
  132POPC   C34  635   4.893   6.281   5.829 -0.3921  0.6256  0.5521
  132POPC   H4X  636   4.786   6.262   5.804  0.3679 -2.7607 -0.7787
  132POPC   H4Y  637   4.927   6.184   5.874  0.0865  1.0149  1.0455
  132POPC   C35  638   4.979   6.319   5.706 -0.7272  0.8908 -0.1241
  132POPC   H5X  639   4.935   6.414   5.670  0.2268  3.5270  4.7190
  132POPC   H5Y  640   4.955   6.242   5.629 -2.2662 -0.4384  1.5877
  132POPC   C36  641   5.133   6.323   5.731 -0.4983 -0.1793  0.0040
  132POPC   H6X  642   5.162   6.225   5.776  1.3122  0.4586  0.3255
  132POPC   H6Y  643   5.152   6.395   5.813  0.5922  1.8161 -1.9122
  132POPC   C37  644   5.218   6.361   5.614  0.4373 -0.1125 -0.2302
  132POPC   H7X  645   5.319   6.377   5.658 -0.4321 -1.9231  2.7217
  132POPC   H7Y  646   5.189   6.459   5.572  2.2321  0.3059 -0.6117
  132POPC   C38  647   5.232   6.253   5.500  0.1155 -0.1751 -0.5092
  132POPC   H8X  648   5.133   6.241   5.450  0.9101  0.2927 -2.2721
  132POPC   H8Y  649   5.267   6.154   5.535 -0.6386  0.0212  0.8572
  132POPC   C39  650   5.328   6.300   5.382  0.0958 -0.0057  0.0907
  132POPC   H9X  651   5.427   6.303   5.433 -1.0612  0.4663  2.4540
  132POPC   H9Y  652   5.297   6.404   5.360  1.3768  0.1229 -1.2450
  132POPC  C310  653   5.339   6.207   5.260  0.0313  0.0065 -0.4216
  132POPC  H10X  654   5.379   6.274   5.181 -0.4971  2.0145  0.9494
  132POPC  H10Y  655   5.233   6.180   5.239 -0.6514  1.6685  0.7433
  132POPC  C311  656   5.439   6.090   5.289  0.3522  0.0120  0.0859
  132POPC  H11X  657   5.408   6.037   5.382  0.6352 -1.8455 -0.8371
  132POPC  H11Y  658   5.534   6.142   5.314 -0.0956  1.4344 -1.1003
  132POPC  C312  659   5.454   5.996   5.166  0.0140  0.0689 -0.0625
  132POPC  H12X  660   5.497   6.064   5.090 -0.2024  2.3374  1.7082
  132POPC  H12Y  661   5.359   5.960   5.121  0.9038 -0.6720 -1.3961
  132POPC  C313  662   5.544   5.874   5.187  0.2318 -0.0951  0.2198
  132POPC  H13X  663   5.488   5.826   5.270 -1.9979  2.2548  0.2142
  132POPC  H13Y  664   5.645   5.909   5.214  0.3509  1.6939 -2.2353
  132POPC  C314  665   5.558   5.772   5.078  0.6917  0.0816  0.4901
  132POPC  H14X  666   5.459   5.739   5.041  0.4074 -0.0950  1.3796
  132POPC  H14Y  667   5.600   5.679   5.124  1.3879  0.2663  0.2496
  132POPC  C315  668   5.658   5.818   4.962 -0.5322  0.2858  0.3134
  132POPC  H15X  669   5.746   5.873   5.003 -0.1611  0.4074 -0.6275
  132POPC  H15Y  670   5.612   5.895   4.897  0.5308  0.4653 -0.2446
  132POPC  C316  671   5.700   5.700   4.868  0.2805  0.7198 -0.0066
  132POPC  H16X  672   5.606   5.648   4.839  0.4594 -0.2539  1.0864
  132POPC  H16Y  673   5.763   5.626   4.921  0.1296  0.3008 -0.4075
  132POPC  H16Z  674   5.753   5.730   4.775 -1.0836  2.1271 -0.3826
  133POPC     N  675   4.519   3.644   7.128  0.4151 -0.3184 -0.1627
  133POPC   C12  676   4.660   3.611   7.093  1.5390 -0.5560 -0.0125
  133POPC  H12A  677   4.706   3.567   7.179  0.9626 -0.3052  0.4301
  133POPC  H12B  678   4.708   3.708   7.089  3.4748 -1.4841 -0.2754
  133POPC   C13  679   4.438   3.524   7.149 -0.2875 -0.0695  0.0058
  133POPC  H13A  680   4.457   3.456   7.068 -0.4084  0.4441 -0.4596
  133POPC  H13B  681   4.459   3.470   7.240  0.9402  0.7867  0.2708
  133POPC  H13C  682   4.332   3.543   7.154 -0.2298  0.8164 -1.5103
  133POPC   C14  683   4.516   3.715   7.263  0.4264  0.7038 -0.9874
  133POPC  H14A  684   4.552   3.817   7.265  0.1119  0.8113  0.4755
  133POPC  H14B  685   4.414   3.735   7.292  0.6648 -1.1432  1.4708
  133POPC  H14C  686   4.569   3.664   7.342  0.6720 -0.6106 -1.9570
  133POPC   C15  687   4.451   3.722   7.024  0.0589 -0.3268 -0.0593
  133POPC  H15A  688   4.366   3.763   7.076  0.6174  0.1901  0.4589
  133POPC  H15B  689   4.422   3.664   6.937 -1.1475  0.8115 -0.4598
  133POPC  H15C  690   4.509   3.805   6.986 -0.4927 -0.1459 -0.5204
  133POPC   C11  691   4.677   3.509   6.979  0.4945  0.6939 -0.3999
  133POPC  H11A  692   4.606   3.426   6.999  1.0292  0.5720  1.1302
  133POPC  H11B  693   4.778   3.464   6.980  0.5823  0.8563  1.1320
  133POPC     P  694   4.721   3.515   6.730  0.0748  0.1207  0.7206
  133POPC   O13  695   4.753   3.370   6.725  0.0377 -0.2973 -0.0764
  133POPC   O14  696   4.836   3.600   6.717  0.3878 -0.0059  0.0385
  133POPC   O12  697   4.647   3.562   6.854 -0.1901 -0.4180  0.2768
  133POPC   O11  698   4.612   3.561   6.623 -0.4633 -0.6551  0.4295
  133POPC    C1  699   4.475   3.507   6.628 -0.0329  0.3708 -0.2711
  133POPC    HA  700   4.397   3.586   6.628 -0.7346 -0.3056 -1.0854
  133POPC    HB  701   4.449   3.453   6.721 -0.6582  0.3008 -0.4774
  133POPC    C2  702   4.450   3.405   6.514  0.0571  0.8104  0.3505
  133POPC    HS  703   4.517   3.316   6.524 -1.2364 -0.2170  0.1668
  133POPC   O21  704   4.459   3.476   6.388 -0.0415  0.5366 -0.0968
  133POPC   C21  705   4.575   3.489   6.342 -0.4802 -0.5389  0.3345
  133POPC   O22  706   4.671   3.423   6.376  0.1759  0.5278 -0.2414
  133POPC   C22  707   4.592   3.612   6.240  0.7840 -0.6184  0.7073
  133POPC   H2R  708   4.697   3.648   6.242  0.0479  1.8312 -0.7251
  133POPC   H2S  709   4.528   3.691   6.283  0.6130 -1.2850  1.7182
  133POPC    C3  710   4.302   3.349   6.530  0.1109 -0.6068  0.0720
  133POPC    HX  711   4.240   3.439   6.551 -1.1652 -1.6102  0.7717
  133POPC    HY  712   4.301   3.300   6.630  1.5768 -0.9782 -0.0655
  133POPC   O31  713   4.257   3.265   6.420 -0.2137  0.2378 -0.5097
  133POPC   C31  714   4.128   3.241   6.427  0.2595  0.6223  0.2343
  133POPC   O32  715   4.056   3.284   6.515  0.6962 -0.2552 -0.2178
  133POPC   C32  716   4.078   3.159   6.307 -0.2137  0.2090 -0.3779
  133POPC   H2X  717   3.977   3.117   6.329  0.1547 -0.4074  0.1389
  133POPC   H2Y  718   4.144   3.070   6.299  0.9969  0.5764  3.4756
  133POPC   C23  719   4.527   3.589   6.104  0.0389 -0.3196  0.8690
  133POPC   H3R  720   4.517   3.687   6.052  1.2534  0.0797  1.3543
  133POPC   H3S  721   4.433   3.529   6.102  1.0192 -2.0362 -2.3261
  133POPC   C24  722   4.615   3.494   6.017  0.5393 -0.2221  0.5171
  133POPC   H4R  723   4.631   3.400   6.074 -2.6236 -0.4973  1.0997
  133POPC   H4S  724   4.713   3.545   6.004  0.4161 -0.3043 -0.8887
  133POPC   C25  725   4.560   3.451   5.885  0.0937 -0.0090  0.8716
  133POPC   H5R  726   4.488   3.516   5.831  0.2340 -1.3669 -1.0883
  133POPC   H5S  727   4.503   3.358   5.907  2.3980 -1.5955  0.5911
  133POPC   C26  728   4.674   3.430   5.779 -0.4854 -0.3422 -0.1501
  133POPC   H6R  729   4.753   3.358   5.811  1.7741  0.5969 -3.0970
  133POPC   H6S  730   4.723   3.528   5.762 -1.6458 -0.1037 -2.4472
  133POPC   C27  731   4.612   3.377   5.645  0.4488 -0.0460  0.1065
  133POPC   H7R  732   4.513   3.422   5.622  0.4767  0.8556  1.6304
  133POPC   H7S  733   4.576   3.275   5.671  0.0561  0.2396  0.7114
  133POPC   C28  734   4.712   3.374   5.526 -0.0906  0.0396  0.1480
  133POPC   H8R  735   4.795   3.305   5.551 -0.7052  0.1031  2.6528
  133POPC   H8S  736   4.753   3.474   5.499  0.5771 -0.1112  0.5750
  133POPC   C29  737   4.637   3.310   5.411 -0.3925 -0.1226 -0.3004
  133POPC   H91  738   4.563   3.234   5.439  1.9027 -2.6414 -0.5590
  133POPC  C210  739   4.658   3.343   5.278 -0.2530 -0.2495  0.1992
  133POPC  H101  740   4.601   3.292   5.199 -0.0590 -1.7150  0.9693
  133POPC  C211  741   4.756   3.444   5.221  0.1411  0.4216 -0.3231
  133POPC  H11R  742   4.853   3.417   5.268 -0.2619 -0.7202 -0.1053
  133POPC  H11S  743   4.731   3.546   5.255 -1.0285  0.5075 -1.3661
  133POPC  C212  744   4.751   3.458   5.063  0.3496  0.4771 -0.3755
  133POPC  H12R  745   4.751   3.356   5.018  1.9946  0.1134  0.3794
  133POPC  H12S  746   4.846   3.510   5.038  0.0187  1.0017 -0.5483
  133POPC  C213  747   4.634   3.551   5.022  0.7401  0.0755 -0.6914
  133POPC  H13R  748   4.637   3.648   5.077  1.5845 -1.9935  3.2552
  133POPC  H13S  749   4.536   3.515   5.058  0.0095  0.2091 -2.4612
  133POPC  C214  750   4.638   3.565   4.873 -0.1938 -0.2281  0.2727
  133POPC  H14R  751   4.627   3.467   4.822  1.4802  0.7090 -2.0691
  133POPC  H14S  752   4.734   3.606   4.835 -1.0621  0.1639 -1.6455
  133POPC  C215  753   4.521   3.649   4.819  0.9693  0.7160  0.4358
  133POPC  H15R  754   4.538   3.756   4.844 -0.0477  1.0173 -0.1234
  133POPC  H15S  755   4.436   3.619   4.884 -0.1412  1.7447 -0.4899
  133POPC  C216  756   4.484   3.644   4.670 -0.4503 -0.0388 -0.0951
  133POPC  H16R  757   4.481   3.536   4.643 -1.5570  0.1643 -0.8282
  133POPC  H16S  758   4.565   3.689   4.609  0.0024  0.3463  0.7638
  133POPC  C217  759   4.347   3.707   4.641  1.1271  0.2439 -0.2434
  133POPC  H17R  760   4.335   3.715   4.531 -2.3469  3.3723  0.1843
  133POPC  H17S  761   4.338   3.809   4.682 -1.7300  0.2520 -0.6867
  133POPC  C218  762   4.240   3.615   4.703 -0.5416  1.1410 -0.1650
  133POPC  H18R  763   4.256   3.518   4.651  0.7131  0.3338  1.6172
  133POPC  H18S  764   4.139   3.661   4.701 -0.6893  0.8176 -0.1918
  133POPC  H18T  765   4.256   3.597   4.812  0.6559  1.3998 -0.2833
  133POPC   C33  766   4.073   3.246   6.182  0.2692  0.3242 -0.8020
  133POPC   H3X  767   4.016   3.341   6.189 -1.0353 -0.2688 -2.5591
  133POPC   H3Y  768   4.018   3.185   6.106  0.0777 -0.8657  0.2524
  133POPC   C34  769   4.215   3.269   6.121  0.1475  0.3811  0.3930
  133POPC   H4X  770   4.252   3.168   6.091 -2.2186 -0.2564 -0.5768
  133POPC   H4Y  771   4.280   3.312   6.201 -1.7763  0.2135  2.1343
  133POPC   C35  772   4.209   3.360   6.001 -0.5639  0.4074 -0.0212
  133POPC   H5X  773   4.296   3.429   6.003 -0.4324  0.2434  0.0094
  133POPC   H5Y  774   4.115   3.416   6.021 -2.1210 -2.3924  1.2044
  133POPC   C36  775   4.200   3.271   5.880  0.0104 -0.6961  0.3478
  133POPC   H6X  776   4.107   3.210   5.888 -0.1580 -0.4359  0.3726
  133POPC   H6Y  777   4.288   3.206   5.860  0.2111 -0.0301 -1.1087
  133POPC   C37  778   4.193   3.363   5.756 -0.2287  0.0816 -0.4253
  133POPC   H7X  779   4.289   3.416   5.737  0.3012  1.0058  3.9342
  133POPC   H7Y  780   4.107   3.432   5.766  0.7289  1.3008 -0.3846
  133POPC   C38  781   4.194   3.276   5.620 -0.4330  0.5504  1.2364
  133POPC   H8X  782   4.099   3.219   5.622 -0.8556  1.1656 -0.0447
  133POPC   H8Y  783   4.280   3.207   5.630  0.4381  1.5645  0.9972
  133POPC   C39  784   4.206   3.346   5.482 -0.9575 -0.1434 -0.3476
  133POPC   H9X  785   4.300   3.406   5.478 -1.3196  0.3825 -1.2324
  133POPC   H9Y  786   4.121   3.412   5.454  0.1207  0.7719 -1.6198
  133POPC  C310  787   4.224   3.251   5.361  0.3124  0.0638 -0.6967
  133POPC  H10X  788   4.139   3.179   5.366 -0.5452  1.1140  0.9018
  133POPC  H10Y  789   4.321   3.199   5.370 -0.0635 -0.6899 -0.9161
  133POPC  C311  790   4.213   3.334   5.235 -0.3006  0.0030 -0.7242
  133POPC  H11X  791   4.274   3.425   5.254  0.4694 -0.7842  0.7238
  133POPC  H11Y  792   4.110   3.368   5.211 -0.4030 -0.0900 -0.4260
  133POPC  C312  793   4.264   3.278   5.103  0.0638 -0.6442 -0.0429
  133POPC  H12X  794   4.212   3.184   5.074 -1.1849  0.1715 -0.5622
  133POPC  H12Y  795   4.373   3.259   5.112 -0.1418 -1.0392  2.5160
  133POPC  C313  796   4.237   3.376   4.986 -0.2099  0.2351 -0.4248
  133POPC  H13X  797   4.322   3.392   4.916 -1.2464  1.8839 -1.3884
  133POPC  H13Y  798   4.222   3.477   5.031  1.5746 -0.0372  0.8900
  133POPC  C314  799   4.113   3.336   4.905  0.0051 -0.4334 -0.2775
  133POPC  H14X  800   4.083   3.425   4.845 -1.2613 -0.0153  0.9339
  133POPC  H14Y  801   4.039   3.311   4.983  1.9637 -0.8581  1.5292
  133POPC  C315  802   4.148   3.217   4.815 -0.4460 -0.6928 -0.0120
  133POPC  H15X  803   4.176   3.124   4.870 -1.9269 -1.1346  0.0283
  133POPC  H15Y  804   4.235   3.241   4.751  0.9033  0.3478  2.0702
  133POPC  C316  805   4.037   3.181   4.714 -0.3166 -0.6736  0.1172
  133POPC  H16X  806   3.979   3.088   4.734  1.4833 -1.7062  0.7108
  133POPC  H16Y  807   4.093   3.158   4.621  1.6819  0.2819  1.0415
  133POPC  H16Z  808   3.963   3.259   4.687 -2.1700 -1.5393  2.3209
  134POPC     N  809   2.599   5.986   7.015  0.1182 -0.5388  0.2668
  134POPC   C12  810   2.591   5.981   6.864  0.1781  0.2247  0.0592
  134POPC  H12A  811   2.489   5.985   6.831  0.4532  1.5587 -0.7155
  134POPC  H12B  812   2.631   5.883   6.842  1.0084  0.5061  0.2610
  134POPC   C13  813   2.510   5.881   7.077 -0.0454 -0.3191  0.1350
  134POPC  H13A  814   2.413   5.890   7.031  0.0892 -1.5280 -0.4202
  134POPC  H13B  815   2.545   5.779   7.065  0.1093 -0.1135 -1.4078
  134POPC  H13C  816   2.510   5.897   7.183  1.1017  0.3389  0.0516
  134POPC   C14  817   2.744   5.966   7.051  0.1759 -0.3796 -0.2895
  134POPC  H14A  818   2.785   5.868   7.033  1.4764  0.0198  0.3805
  134POPC  H14B  819   2.808   6.043   7.011 -0.2091  1.1139  1.7768
  134POPC  H14C  820   2.751   5.959   7.159 -0.5220  0.8501 -0.1383
  134POPC   C15  821   2.554   6.126   7.058  0.4599 -0.2336  0.1179
  134POPC  H15A  822   2.448   6.144   7.051  0.3716 -0.0644  1.6093
  134POPC  H15B  823   2.598   6.199   6.992  0.9914 -0.4237  0.2550
  134POPC  H15C  824   2.596   6.151   7.154  0.0366  0.0585  0.2317
  134POPC   C11  825   2.671   6.082   6.783 -0.3056 -0.2783  0.1068
  134POPC  H11A  826   2.694   6.035   6.684  0.9531 -0.0467  0.2768
  134POPC  H11B  827   2.769   6.088   6.834 -0.5455 -1.4479  0.7419
  134POPC     P  828   2.478   6.238   6.688  0.1071  0.2649  0.3987
  134POPC   O13  829   2.447   6.382   6.699  0.1599  0.0924 -0.0040
  134POPC   O14  830   2.369   6.137   6.710  0.1124  0.5456 -0.6928
  134POPC   O12  831   2.597   6.205   6.783  0.4232 -0.5909  0.2636
  134POPC   O11  832   2.536   6.212   6.537 -0.2848 -0.4378 -0.3224
  134POPC    C1  833   2.650   6.300   6.511 -0.3446  0.3542  0.0319
  134POPC    HA  834   2.735   6.287   6.581  0.4597  0.5858 -0.8721
  134POPC    HB  835   2.623   6.408   6.514 -0.2563  0.3591  1.4609
  134POPC    C2  836   2.718   6.256   6.374 -0.1649 -0.1489  0.3488
  134POPC    HS  837   2.786   6.340   6.349  1.0882 -1.3381 -0.3869
  134POPC   O21  838   2.619   6.238   6.273  0.2323  0.1017 -0.3859
  134POPC   C21  839   2.678   6.252   6.152 -0.7147 -0.5615  0.5284
  134POPC   O22  840   2.793   6.287   6.137  0.5539 -0.5827 -0.6563
  134POPC   C22  841   2.593   6.183   6.047  0.8286  0.0054 -0.0271
  134POPC   H2R  842   2.538   6.261   5.989  0.7730  1.1042  1.4437
  134POPC   H2S  843   2.521   6.115   6.097 -1.4541  1.1637 -1.5271
  134POPC    C3  844   2.799   6.127   6.388  0.0303  0.2470  0.4265
  134POPC    HX  845   2.742   6.074   6.468 -2.2927  0.0683 -1.2549
  134POPC    HY  846   2.899   6.155   6.429 -0.3260 -0.1592  1.6000
  134POPC   O31  847   2.806   6.041   6.277  0.0367  0.3993  0.1335
  134POPC   C31  848   2.888   5.932   6.304 -0.6945  1.2490 -0.3220
  134POPC   O32  849   2.948   5.926   6.410  0.2730  0.1140  0.2190
  134POPC   C32  850   2.907   5.836   6.187 -0.1858 -0.7972 -0.3028
  134POPC   H2X  851   3.005   5.783   6.183 -0.9951 -2.4020  0.3472
  134POPC   H2Y  852   2.902   5.909   6.103  0.7524 -0.1533  0.1757
  134POPC   C23  853   2.676   6.101   5.944  0.2285  0.1033  0.4313
  134POPC   H3R  854   2.748   6.037   5.999 -0.2117 -0.5583  0.2546
  134POPC   H3S  855   2.731   6.181   5.889  0.6809 -1.3096 -1.2914
  134POPC   C24  856   2.593   6.011   5.854  0.2555 -0.0082 -0.4174
  134POPC   H4R  857   2.522   6.072   5.795  1.0693  0.8940 -0.5033
  134POPC   H4S  858   2.532   5.939   5.913  1.8280  0.7604  2.3721
  134POPC   C25  859   2.675   5.926   5.759  0.0800 -0.1534  0.7055
  134POPC   H5R  860   2.753   5.878   5.823  1.0740 -1.1326 -1.1648
  134POPC   H5S  861   2.730   5.988   5.685 -0.5341 -1.4774 -0.9211
  134POPC   C26  862   2.606   5.811   5.685  0.2302  0.1651 -0.3189
  134POPC   H6R  863   2.570   5.745   5.767  1.2123 -0.6264 -0.4883
  134POPC   H6S  864   2.683   5.754   5.627 -0.9454  0.4738 -2.2675
  134POPC   C27  865   2.495   5.848   5.582 -0.0368 -0.8437 -0.3857
  134POPC   H7R  866   2.536   5.919   5.507 -0.3800 -1.8595 -1.5770
  134POPC   H7S  867   2.417   5.898   5.643  1.8410 -1.8818  3.1728
  134POPC   C28  868   2.432   5.721   5.520 -0.2651 -0.5370  0.3291
  134POPC   H8R  869   2.372   5.678   5.603 -4.1643  3.9613  0.2369
  134POPC   H8S  870   2.520   5.658   5.496  0.1955  0.5789 -1.0392
  134POPC   C29  871   2.336   5.736   5.403 -0.1016 -0.1458 -0.0694
  134POPC   H91  872   2.229   5.736   5.429  0.3428  3.1981  2.4273
  134POPC  C210  873   2.368   5.721   5.272  0.7234 -0.0108  0.1258
  134POPC  H101  874   2.296   5.745   5.193  1.5040 -1.1295 -0.9712
  134POPC  C211  875   2.506   5.718   5.221 -0.0972  0.4509 -0.3470
  134POPC  H11R  876   2.569   5.770   5.296 -1.8279 -1.0592  2.3419
  134POPC  H11S  877   2.509   5.771   5.124 -0.7807 -2.8763 -2.3731
  134POPC  C212  878   2.564   5.577   5.185  0.6172  0.5402  0.1752
  134POPC  H12R  879   2.503   5.517   5.113  1.1770  1.4754 -1.1232
  134POPC  H12S  880   2.589   5.525   5.280  1.4945 -0.0374 -0.3583
  134POPC  C213  881   2.711   5.600   5.130  0.7743  0.3159 -0.9653
  134POPC  H13R  882   2.764   5.659   5.208 -0.5419 -2.6992  2.5182
  134POPC  H13S  883   2.716   5.647   5.029  0.4648  1.2828 -0.5422
  134POPC  C214  884   2.786   5.462   5.118 -0.5255  0.5607  0.5830
  134POPC  H14R  885   2.802   5.405   5.212 -0.7468 -2.5902 -1.1651
  134POPC  H14S  886   2.884   5.477   5.068 -0.8504  0.0674 -0.2097
  134POPC  C215  887   2.729   5.361   5.012  0.2449 -0.2151 -0.0300
  134POPC  H15R  888   2.710   5.415   4.917  0.4812  0.5179  0.3303
  134POPC  H15S  889   2.632   5.319   5.047  0.4435 -0.3682  0.3496
  134POPC  C216  890   2.812   5.243   4.980 -0.3092 -0.3235 -0.4977
  134POPC  H16R  891   2.823   5.190   5.077 -0.5982  1.9825  0.8595
  134POPC  H16S  892   2.907   5.280   4.935 -0.4669 -0.3041 -0.8191
  134POPC  C217  893   2.756   5.158   4.867  0.1613 -0.0367  0.0763
  134POPC  H17R  894   2.748   5.222   4.776  1.5706  0.5417  0.3279
  134POPC  H17S  895   2.649   5.137   4.888  0.0289  0.2600 -0.2986
  134POPC  C218  896   2.832   5.026   4.847 -0.0630  0.2310 -0.4453
  134POPC  H18R  897   2.829   4.972   4.944 -1.1008 -0.5256 -0.8713
  134POPC  H18S  898   2.938   5.043   4.818  1.0968 -3.0429  1.2858
  134POPC  H18T  899   2.781   4.969   4.766 -0.3744 -1.1968  0.7009
  134POPC   C33  900   2.799   5.731   6.167  0.4627  0.2895  0.4425
  134POPC   H3X  901   2.694   5.768   6.175  0.6648  0.9136  0.2476
  134POPC   H3Y  902   2.806   5.644   6.237 -1.8937 -1.3088 -1.1306
  134POPC   C34  903   2.818   5.659   6.032  0.4834  0.3063  0.7893
  134POPC   H4X  904   2.918   5.611   6.026  0.6160  0.7338 -1.2399
  134POPC   H4Y  905   2.830   5.740   5.957  1.7811 -0.3451  0.2563
  134POPC   C35  906   2.709   5.566   5.995 -0.5865  0.2370 -0.3650
  134POPC   H5X  907   2.605   5.605   5.987 -0.7908 -0.0992  0.5257
  134POPC   H5Y  908   2.700   5.484   6.070  1.6488 -1.6541 -2.0069
  134POPC   C36  909   2.746   5.480   5.868 -0.0935 -0.4970 -0.6985
  134POPC   H6X  910   2.842   5.431   5.897 -0.9960 -2.4896 -0.8854
  134POPC   H6Y  911   2.770   5.549   5.785 -0.9881 -1.9506 -2.2303
  134POPC   C37  912   2.635   5.386   5.823 -0.5323  0.1798 -0.5542
  134POPC   H7X  913   2.595   5.342   5.917 -0.4070 -0.5829 -0.8496
  134POPC   H7Y  914   2.696   5.311   5.769  1.5284  0.0382  1.7832
  134POPC   C38  915   2.530   5.445   5.732 -0.3255 -0.5311 -0.2623
  134POPC   H8X  916   2.573   5.465   5.632 -2.2232  2.1263 -0.6256
  134POPC   H8Y  917   2.507   5.546   5.772  0.8621 -0.5583  0.5391
  134POPC   C39  918   2.393   5.360   5.737 -1.1827 -0.7096 -0.4014
  134POPC   H9X  919   2.334   5.403   5.653 -1.1327 -2.4998 -1.3884
  134POPC   H9Y  920   2.345   5.389   5.834 -0.6182  2.6018 -0.9864
  134POPC  C310  921   2.418   5.210   5.735 -0.2655 -0.5953 -0.3961
  134POPC  H10X  922   2.325   5.154   5.758 -1.2099  1.7218  2.0699
  134POPC  H10Y  923   2.482   5.183   5.822 -1.9003 -0.6328  0.8569
  134POPC  C311  924   2.477   5.157   5.604  0.2337  0.1771  0.6749
  134POPC  H11X  925   2.499   5.048   5.605 -1.5215 -0.2386 -0.9937
  134POPC  H11Y  926   2.571   5.213   5.584  0.1567  0.0667 -0.0305
  134POPC  C312  927   2.379   5.177   5.483  0.1617  0.6042  0.1588
  134POPC  H12X  928   2.294   5.240   5.516 -0.5543  0.2529 -0.9572
  134POPC  H12Y  929   2.327   5.081   5.467  1.2183  0.0554 -0.1197
  134POPC  C313  930   2.456   5.230   5.357 -0.1612 -0.1188  0.3075
  134POPC  H13X  931   2.503   5.327   5.383  1.3709 -0.9594  0.7713
  134POPC  H13Y  932   2.373   5.251   5.286  0.3145 -0.5922 -0.3978
  134POPC  C314  933   2.568   5.139   5.305 -0.5940 -0.0866  0.2762
  134POPC  H14X  934   2.655   5.146   5.374 -0.5626 -1.4771  0.3967
  134POPC  H14Y  935   2.606   5.174   5.207  1.8530  0.0290  1.2000
  134POPC  C315  936   2.517   4.998   5.276 -0.2086  0.5896  0.0312
  134POPC  H15X  937   2.428   4.995   5.209 -0.6377  1.3250  0.5465
  134POPC  H15Y  938   2.481   4.963   5.375 -0.1295  0.5302  0.0385
  134POPC  C316  939   2.620   4.904   5.213  0.8049  0.5796 -0.5548
  134POPC  H16X  940   2.638   4.943   5.111 -1.2438  1.7328 -0.5346
  134POPC  H16Y  941   2.561   4.810   5.210  0.0144  1.0371  0.1720
  134POPC  H16Z  942   2.707   4.880   5.278  0.1689  2.3193  1.0217
  135POPC     N  943   1.493   1.726   6.506 -0.4461  0.4769  0.0627
  135POPC   C12  944   1.537   1.772   6.371  0.2311  0.2023  1.0772
  135POPC  H12A  945   1.644   1.762   6.356  0.0762 -0.4734  0.3627
  135POPC  H12B  946   1.501   1.874   6.368  0.7338  0.3528 -0.1134
  135POPC   C13  947   1.566   1.591   6.520 -0.2662 -1.0460  0.6062
  135POPC  H13A  948   1.571   1.546   6.422 -0.4439 -0.8154  0.4889
  135POPC  H13B  949   1.668   1.606   6.552 -0.0664 -0.9476 -0.0595
  135POPC  H13C  950   1.514   1.522   6.584  0.7676 -1.4128  1.0686
  135POPC   C14  951   1.540   1.818   6.613  0.2703 -0.2838  0.8185
  135POPC  H14A  952   1.512   1.783   6.711  1.0755 -1.8155  0.5312
  135POPC  H14B  953   1.646   1.842   6.616  0.0465  1.4520 -1.5701
  135POPC  H14C  954   1.487   1.912   6.608  0.6796 -0.0367  0.9987
  135POPC   C15  955   1.346   1.700   6.526 -0.1179  0.3478 -0.2560
  135POPC  H15A  956   1.340   1.642   6.617 -0.5825 -0.8496 -1.0114
  135POPC  H15B  957   1.305   1.651   6.439  1.8698 -1.3568 -0.3153
  135POPC  H15C  958   1.299   1.794   6.551 -2.6679 -0.8793 -0.0883
  135POPC   C11  959   1.463   1.702   6.256 -0.7894  0.2614 -0.3246
  135POPC  H11A  960   1.498   1.752   6.163  0.1573  0.9851  0.3900
  135POPC  H11B  961   1.355   1.726   6.262 -0.4760  3.0224 -3.0487
  135POPC     P  962   1.359   1.461   6.239  0.1723  0.4839  0.1287
  135POPC   O13  963   1.255   1.505   6.334  0.3887  0.7765 -0.2912
  135POPC   O14  964   1.405   1.320   6.254  0.6162  0.1468  0.0285
  135POPC   O12  965   1.479   1.558   6.250 -0.5777 -0.1272 -0.8171
  135POPC   O11  966   1.295   1.468   6.096 -0.5119 -0.1890  0.3502
  135POPC    C1  967   1.375   1.426   5.978 -0.0827  0.1069 -0.6642
  135POPC    HA  968   1.319   1.362   5.906 -0.7928  2.6082 -2.4852
  135POPC    HB  969   1.463   1.366   6.009  0.2257 -0.1703 -2.0031
  135POPC    C2  970   1.449   1.544   5.909 -0.1204 -0.0989  0.8527
  135POPC    HS  971   1.519   1.588   5.983  1.5763  0.3172 -0.9256
  135POPC   O21  972   1.353   1.639   5.866  0.2440  0.3354  0.1834
  135POPC   C21  973   1.392   1.764   5.870 -0.2124 -0.1007  0.8377
  135POPC   O22  974   1.501   1.803   5.907  0.0962 -0.1528 -0.1149
  135POPC   C22  975   1.265   1.852   5.850 -0.5847 -0.2605  0.1135
  135POPC   H2R  976   1.204   1.834   5.941  2.0734 -1.5138  1.7762
  135POPC   H2S  977   1.227   1.811   5.754  1.5405  0.6507 -1.1869
  135POPC    C3  978   1.521   1.493   5.780  0.3597  0.3131  0.1724
  135POPC    HX  979   1.435   1.483   5.711 -1.1250  1.4492  1.7665
  135POPC    HY  980   1.562   1.395   5.813  0.1956 -0.4209 -1.6892
  135POPC   O31  981   1.624   1.588   5.738  0.0784  0.1256 -0.3071
  135POPC   C31  982   1.747   1.578   5.792  0.1461  0.2971 -0.0185
  135POPC   O32  983   1.774   1.500   5.881 -0.0754 -0.4398 -0.2830
  135POPC   C32  984   1.830   1.693   5.749  0.9189 -0.7120 -0.4419
  135POPC   H2X  985   1.870   1.736   5.843 -0.3770 -1.4727  0.4834
  135POPC   H2Y  986   1.764   1.764   5.695 -0.5782 -1.2948  0.5750
  135POPC   C23  987   1.310   1.998   5.826  0.1026 -0.6587 -0.3081
  135POPC   H3R  988   1.402   2.022   5.767  0.5493  0.7931  0.9173
  135POPC   H3S  989   1.323   2.038   5.928 -1.2992 -1.9706  0.4217
  135POPC   C24  990   1.202   2.076   5.748  0.5927 -0.1973 -0.8376
  135POPC   H4R  991   1.105   2.056   5.797  1.6360 -1.7092  0.7272
  135POPC   H4S  992   1.198   2.042   5.642  0.2912  1.5151 -1.4087
  135POPC   C25  993   1.235   2.229   5.751 -0.1719  0.4723 -0.0450
  135POPC   H5R  994   1.346   2.227   5.738 -0.3621 -2.8381 -2.3091
  135POPC   H5S  995   1.217   2.276   5.850 -0.3930 -1.4635  0.8768
  135POPC   C26  996   1.159   2.293   5.633 -0.0885 -0.1073 -0.4804
  135POPC   H6R  997   1.056   2.323   5.660 -1.0170 -1.6992 -2.0956
  135POPC   H6S  998   1.162   2.223   5.547 -2.9997 -2.0405  0.8712
  135POPC   C27  999   1.226   2.433   5.599 -1.3832  0.5612 -0.2846
  135POPC   H7R 1000   1.332   2.407   5.578 -1.2998  1.4525 -1.0420
  135POPC   H7S 1001   1.229   2.499   5.689  0.1024  0.9633 -0.5962
  135POPC   C28 1002   1.154   2.512   5.486 -0.1856  0.1099  0.0630
  135POPC   H8R 1003   1.183   2.619   5.500 -0.5457  0.6216 -2.5466
  135POPC   H8S 1004   1.048   2.508   5.519 -0.8507  0.5792 -1.8510
  135POPC   C29 1005   1.169   2.460   5.347  0.5702  1.3559 -0.1194
  135POPC   H91 1006   1.186   2.351   5.348  0.9130  1.3567 -2.0045
  135POPC  C210 1007   1.175   2.524   5.226 -0.6402 -0.4732  0.2671
  135POPC  H101 1008   1.190   2.455   5.142  3.7373 -0.1404  0.5007
  135POPC  C211 1009   1.174   2.670   5.194 -0.1852  0.2518 -0.1958
  135POPC  H11R 1010   1.128   2.721   5.282  1.4221 -0.2339  0.9792
  135POPC  H11S 1011   1.125   2.700   5.100  2.4855  3.1193 -0.8556
  135POPC  C212 1012   1.326   2.713   5.186  0.2663  0.0740  0.1249
  135POPC  H12R 1013   1.370   2.659   5.100  0.8701 -0.8025  0.9638
  135POPC  H12S 1014   1.377   2.685   5.281  0.6373 -1.5383 -0.5168
  135POPC  C213 1015   1.351   2.864   5.171  0.1058 -0.4562 -0.2998
  135POPC  H13R 1016   1.316   2.912   5.264  0.4862 -1.9687  0.6594
  135POPC  H13S 1017   1.300   2.895   5.077  0.4354  0.2591 -0.2493
  135POPC  C214 1018   1.500   2.907   5.169 -0.1034  0.3557  0.5435
  135POPC  H14R 1019   1.548   2.872   5.263  1.2500  0.6145 -0.0276
  135POPC  H14S 1020   1.503   3.018   5.162 -0.4369  0.3146 -0.4675
  135POPC  C215 1021   1.579   2.836   5.054  0.1186  0.5913 -0.1944
  135POPC  H15R 1022   1.535   2.861   4.955 -1.3948 -0.9887  0.0334
  135POPC  H15S 1023   1.572   2.726   5.068 -0.8156  0.7641  0.8271
  135POPC  C216 1024   1.727   2.875   5.060  0.2403 -0.3815 -0.9463
  135POPC  H16R 1025   1.765   2.836   5.157 -3.1492 -0.7446  0.3862
  135POPC  H16S 1026   1.741   2.984   5.075  1.9477 -0.6588 -0.2926
  135POPC  C217 1027   1.806   2.834   4.939  0.9555  0.2012  0.0354
  135POPC  H17R 1028   1.766   2.887   4.850  1.2654 -0.3477 -0.4417
  135POPC  H17S 1029   1.796   2.727   4.909 -0.4728  1.0511 -2.9461
  135POPC  C218 1030   1.958   2.854   4.952 -0.2097  0.6257 -0.0452
  135POPC  H18R 1031   1.999   2.949   4.992  2.7357 -0.0057 -1.2814
  135POPC  H18S 1032   2.009   2.858   4.853 -0.9151  1.5157 -0.3896
  135POPC  H18T 1033   2.002   2.765   5.002 -1.0676  0.2504  0.0497
  135POPC   C33 1034   1.948   1.650   5.664  0.5646 -0.5774 -0.2697
  135POPC   H3X 1035   2.013   1.574   5.711  0.7803 -0.8883 -1.0450
  135POPC   H3Y 1036   2.008   1.738   5.631  2.0820 -2.7872 -4.1804
  135POPC   C34 1037   1.894   1.595   5.533  0.1287  0.4788  1.3269
  135POPC   H4X 1038   1.838   1.674   5.477  1.5460 -0.5354 -1.7339
  135POPC   H4Y 1039   1.827   1.509   5.552  1.1456 -0.4261  0.9615
  135POPC   C35 1040   2.012   1.576   5.436 -0.5333 -0.2515  0.3043
  135POPC   H5X 1041   1.994   1.504   5.353 -0.3556 -1.0323  0.9260
  135POPC   H5Y 1042   2.099   1.538   5.494  0.2145  0.8047 -0.1051
  135POPC   C36 1043   2.068   1.708   5.365  1.3298 -0.0432  0.0836
  135POPC   H6X 1044   2.171   1.686   5.329  0.6054 -0.0550 -2.1522
  135POPC   H6Y 1045   2.073   1.784   5.446  0.1081 -2.1707  2.2947
  135POPC   C37 1046   1.985   1.755   5.244  0.1098  0.6884  0.7715
  135POPC   H7X 1047   1.883   1.790   5.272  0.5788  0.8839  2.3319
  135POPC   H7Y 1048   1.987   1.674   5.168  2.8789  0.9849  0.4297
  135POPC   C38 1049   2.049   1.880   5.184  0.4323  0.6987 -0.2654
  135POPC   H8X 1050   2.153   1.853   5.158  0.0478 -0.0990 -1.0201
  135POPC   H8Y 1051   2.047   1.958   5.263  2.5841 -0.3439  0.8999
  135POPC   C39 1052   1.969   1.928   5.059 -0.0509  0.0436 -0.0581
  135POPC   H9X 1053   1.861   1.922   5.085 -0.1038 -1.0779 -0.4741
  135POPC   H9Y 1054   1.978   1.855   4.976 -0.3111  0.3066 -0.3190
  135POPC  C310 1055   2.000   2.069   5.001 -0.2829  0.0995  0.0819
  135POPC  H10X 1056   1.937   2.081   4.911 -3.1114  0.3714  1.9718
  135POPC  H10Y 1057   2.108   2.071   4.974  0.0782 -4.7249  0.2562
  135POPC  C311 1058   1.975   2.183   5.113 -0.4396 -0.2216  0.1552
  135POPC  H11X 1059   1.998   2.280   5.064  1.6303 -1.0883 -0.7416
  135POPC  H11Y 1060   2.042   2.178   5.202 -0.9061  0.1953  0.5271
  135POPC  C312 1061   1.828   2.192   5.170  0.7674  0.6707 -0.5760
  135POPC  H12X 1062   1.813   2.093   5.219 -1.2958 -0.0307 -2.4723
  135POPC  H12Y 1063   1.757   2.195   5.085  1.8990 -0.5433 -1.6165
  135POPC  C313 1064   1.816   2.317   5.251  0.8917  0.5980  1.0093
  135POPC  H13X 1065   1.833   2.398   5.178 -2.2186 -0.1067 -0.6712
  135POPC  H13Y 1066   1.896   2.326   5.328  1.7234 -1.6926  0.4786
  135POPC  C314 1067   1.685   2.344   5.322 -0.4204  0.0959 -0.2550
  135POPC  H14X 1068   1.678   2.276   5.410 -2.2966 -0.3558 -0.7147
  135POPC  H14Y 1069   1.605   2.331   5.247  0.3429 -0.3468 -1.0159
  135POPC  C315 1070   1.686   2.482   5.392 -0.3442 -0.6005 -0.6672
  135POPC  H15X 1071   1.708   2.560   5.317  0.5660  2.7851  2.8094
  135POPC  H15Y 1072   1.762   2.488   5.472 -2.2952  1.4801  1.1588
  135POPC  C316 1073   1.554   2.503   5.476 -0.3466  0.3855  0.2289
  135POPC  H16X 1074   1.468   2.472   5.413 -0.5436  1.1266  0.1208
  135POPC  H16Y 1075   1.548   2.609   5.508  0.3840  1.0192 -1.5903
  135POPC  H16Z 1076   1.558   2.442   5.568  2.4542 -0.4793 -0.3609
  136POPC     N 1077   3.743   3.177   7.118 -0.2288 -0.2306 -0.0405
  136POPC   C12 1078   3.731   3.020   7.118  0.2572 -0.4822 -0.2081
  136POPC  H12A 1079   3.763   2.981   7.213 -0.6362  2.6058  1.5034
  136POPC  H12B 1080   3.807   2.987   7.049  0.5295  0.7312 -0.5160
  136POPC   C13 1081   3.716   3.235   6.984 -0.6144 -0.1803 -0.8982
  136POPC  H13A 1082   3.627   3.191   6.939 -0.5116  0.7532 -2.0726
  136POPC  H13B 1083   3.684   3.337   6.997 -1.0775 -0.4395  0.0679
  136POPC  H13C 1084   3.799   3.241   6.915  0.6529 -0.8211  0.5336
  136POPC   C14 1085   3.636   3.225   7.213  0.3325  0.3086 -0.0064
  136POPC  H14A 1086   3.545   3.180   7.178  0.1332 -0.5806  1.5536
  136POPC  H14B 1087   3.658   3.216   7.318  0.9712 -1.3998 -0.2517
  136POPC  H14C 1088   3.623   3.330   7.191 -2.5937  0.1922  0.7218
  136POPC   C15 1089   3.881   3.225   7.162  0.4675  0.0665  0.3893
  136POPC  H15A 1090   3.886   3.188   7.263 -3.4503 -2.8537 -0.2200
  136POPC  H15B 1091   3.889   3.333   7.165  3.9615  0.0030 -1.7850
  136POPC  H15C 1092   3.959   3.178   7.104  0.1313 -1.8456  1.4082
  136POPC   C11 1093   3.595   2.956   7.068  0.0741  0.6044  0.7126
  136POPC  H11A 1094   3.509   2.995   7.126 -1.3621 -0.3462 -0.7180
  136POPC  H11B 1095   3.599   2.847   7.090 -0.8520  0.1557 -1.1881
  136POPC     P 1096   3.669   2.924   6.813  0.4137  0.0183 -0.2420
  136POPC   O13 1097   3.589   2.812   6.755 -0.0835 -0.5914 -0.0194
  136POPC   O14 1098   3.806   2.894   6.858  0.3368 -0.0753 -0.1341
  136POPC   O12 1099   3.583   2.989   6.933  0.1926  0.0789 -0.1012
  136POPC   O11 1100   3.663   3.045   6.715  0.0627 -0.2088 -0.0077
  136POPC    C1 1101   3.539   3.103   6.679 -0.5323 -0.1047 -0.0340
  136POPC    HA 1102   3.540   3.206   6.721  2.3920 -0.1499  0.1706
  136POPC    HB 1103   3.444   3.055   6.713 -0.3820  0.4747  1.2890
  136POPC    C2 1104   3.531   3.110   6.520 -0.0558  0.0648 -0.1802
  136POPC    HS 1105   3.477   3.207   6.507 -0.0626  0.4097  2.0634
  136POPC   O21 1106   3.468   2.998   6.451 -0.4546  1.0642  0.8605
  136POPC   C21 1107   3.338   2.975   6.463 -0.2392 -0.1391 -0.2932
  136POPC   O22 1108   3.260   3.019   6.547  0.2548 -0.3898  1.5419
  136POPC   C22 1109   3.302   2.874   6.354  0.5106  0.0164 -0.8716
  136POPC   H2R 1110   3.196   2.844   6.367  0.0337  1.0268 -2.2044
  136POPC   H2S 1111   3.379   2.795   6.358  0.6705  0.2312  1.2026
  136POPC    C3 1112   3.675   3.135   6.467 -0.0474 -0.4148  0.6943
  136POPC    HX 1113   3.727   3.037   6.473 -1.4694 -1.2639 -0.2542
  136POPC    HY 1114   3.723   3.208   6.536  2.8351 -0.4583 -1.0908
  136POPC   O31 1115   3.671   3.182   6.326  0.5387 -0.1761  0.1140
  136POPC   C31 1116   3.654   3.317   6.318 -0.0796  0.3455  0.2892
  136POPC   O32 1117   3.630   3.393   6.411 -0.1782  0.2290  0.4566
  136POPC   C32 1118   3.677   3.354   6.169  0.5141 -0.4986  0.0652
  136POPC   H2X 1119   3.591   3.319   6.108  1.0942  1.8089 -2.2574
  136POPC   H2Y 1120   3.766   3.306   6.124  1.5292  1.6031 -0.3176
  136POPC   C23 1121   3.308   2.952   6.220  0.9083 -0.5230  0.0687
  136POPC   H3R 1122   3.414   2.976   6.195  0.8746  0.4134  0.7854
  136POPC   H3S 1123   3.259   3.051   6.224  1.4490 -0.2617  0.4047
  136POPC   C24 1124   3.238   2.876   6.106  0.0516 -0.4385 -0.5555
  136POPC   H4R 1125   3.138   2.844   6.141  0.1331  1.0907  1.1933
  136POPC   H4S 1126   3.285   2.775   6.103 -1.9207 -1.3851 -1.5486
  136POPC   C25 1127   3.223   2.955   5.976 -0.0471 -0.0535  0.7288
  136POPC   H5R 1128   3.321   2.993   5.940 -0.2260  0.4068  0.7126
  136POPC   H5S 1129   3.151   3.039   5.985 -0.6218 -0.2536 -1.3800
  136POPC   C26 1130   3.167   2.858   5.859 -0.5819  0.7369 -0.7605
  136POPC   H6R 1131   3.101   2.914   5.788 -0.5113  0.2972 -1.1755
  136POPC   H6S 1132   3.103   2.780   5.905  0.6592 -0.2458 -0.6699
  136POPC   C27 1133   3.284   2.791   5.787  0.1227  0.4753 -0.0077
  136POPC   H7R 1134   3.362   2.755   5.857 -0.4915 -1.2520 -0.1391
  136POPC   H7S 1135   3.336   2.865   5.724 -1.9170  2.1223  0.1370
  136POPC   C28 1136   3.247   2.667   5.691 -0.0188  0.0266 -0.1661
  136POPC   H8R 1137   3.220   2.582   5.758 -2.3026  0.2180 -0.7516
  136POPC   H8S 1138   3.340   2.636   5.639  0.8401  1.5606  0.4057
  136POPC   C29 1139   3.131   2.702   5.605 -0.0036  0.6693  0.6504
  136POPC   H91 1140   3.035   2.669   5.650  0.0673  1.5122  1.4570
  136POPC  C210 1141   3.143   2.747   5.480  0.0481 -0.1792  0.2565
  136POPC  H101 1142   3.053   2.756   5.417  1.0180  3.6399 -0.8755
  136POPC  C211 1143   3.275   2.786   5.420  0.7447  0.5405  0.3369
  136POPC  H11R 1144   3.324   2.699   5.372 -1.6770 -0.4670 -0.4574
  136POPC  H11S 1145   3.344   2.827   5.497  2.2854  1.6705 -1.5444
  136POPC  C212 1146   3.277   2.907   5.329 -0.0080 -0.9081 -0.0907
  136POPC  H12R 1147   3.371   2.964   5.344  1.2718 -2.4767 -1.7246
  136POPC  H12S 1148   3.194   2.971   5.365  2.9450  2.3871  1.4638
  136POPC  C213 1149   3.259   2.875   5.184  0.8618 -0.8019  0.6056
  136POPC  H13R 1150   3.150   2.881   5.160  0.9571  1.9137  0.5423
  136POPC  H13S 1151   3.291   2.772   5.158 -0.3424 -0.8209 -0.9863
  136POPC  C214 1152   3.320   2.983   5.083  0.2086  1.0838 -0.1996
  136POPC  H14R 1153   3.418   3.015   5.127  0.2718 -0.7116  1.0708
  136POPC  H14S 1154   3.255   3.073   5.084  0.4738  1.2777 -0.4199
  136POPC  C215 1155   3.321   2.932   4.941 -0.0517 -0.2422 -0.2547
  136POPC  H15R 1156   3.348   2.825   4.956  1.4990  0.2310  0.6411
  136POPC  H15S 1157   3.386   2.989   4.871  0.8463  0.6112  1.2105
  136POPC  C216 1158   3.188   2.933   4.876  0.0659  0.2002  0.5104
  136POPC  H16R 1159   3.189   3.015   4.801  0.9785 -1.0967 -0.9473
  136POPC  H16S 1160   3.102   2.962   4.941 -0.8630  0.2829 -0.7289
  136POPC  C217 1161   3.164   2.798   4.809 -0.1378 -0.1541 -0.2992
  136POPC  H17R 1162   3.160   2.734   4.900  1.5090  1.9366  1.3418
  136POPC  H17S 1163   3.248   2.765   4.745  0.6855  2.0939 -0.4485
  136POPC  C218 1164   3.025   2.797   4.728 -0.0874  0.5254 -0.0683
  136POPC  H18R 1165   3.045   2.818   4.621 -1.7426  1.7626 -0.1881
  136POPC  H18S 1166   2.942   2.860   4.769 -1.6564 -1.4467 -0.0635
  136POPC  H18T 1167   2.989   2.692   4.728 -1.2748  0.8305  2.6733
  136POPC   C33 1168   3.707   3.505   6.153 -0.5056 -0.4585 -0.7705
  136POPC   H3X 1169   3.802   3.521   6.209 -0.9390 -2.1291  0.5203
  136POPC   H3Y 1170   3.634   3.567   6.209  1.3397  1.6032 -0.4773
  136POPC   C34 1171   3.716   3.554   6.011 -0.4337 -0.6369  0.3892
  136POPC   H4X 1172   3.778   3.646   6.016 -1.7713  0.2422  1.7636
  136POPC   H4Y 1173   3.615   3.571   5.968  0.7782  0.7658 -2.0986
  136POPC   C35 1174   3.785   3.460   5.912  0.1344 -0.5370 -0.1075
  136POPC   H5X 1175   3.722   3.368   5.911 -0.9695  0.0859  2.9483
  136POPC   H5Y 1176   3.887   3.442   5.952  0.4256  0.9192 -0.1485
  136POPC   C36 1177   3.796   3.512   5.765 -0.1487 -0.1569 -0.4991
  136POPC   H6X 1178   3.853   3.430   5.716 -0.0812  1.0325 -2.5356
  136POPC   H6Y 1179   3.863   3.601   5.763  0.4449 -0.5737 -2.4741
  136POPC   C37 1180   3.664   3.534   5.691  0.5008 -0.7382 -0.3689
  136POPC   H7X 1181   3.596   3.592   5.757 -1.0143 -1.4088 -1.3032
  136POPC   H7Y 1182   3.607   3.440   5.684 -0.7115 -0.1161  0.7535
  136POPC   C38 1183   3.679   3.602   5.553  0.5516  0.2078 -0.1413
  136POPC   H8X 1184   3.745   3.552   5.479  0.7490  0.9543 -0.4708
  136POPC   H8Y 1185   3.724   3.700   5.579 -0.3657  0.9233 -1.1632
  136POPC   C39 1186   3.547   3.623   5.482 -0.0145 -0.1600 -0.1226
  136POPC   H9X 1187   3.481   3.683   5.548  1.5720  2.4297 -0.7336
  136POPC   H9Y 1188   3.505   3.525   5.451  1.2108 -1.2465  1.5142
  136POPC  C310 1189   3.567   3.688   5.346 -0.0605  0.8189 -0.2652
  136POPC  H10X 1190   3.641   3.625   5.292 -1.9934 -1.5820 -0.2730
  136POPC  H10Y 1191   3.613   3.788   5.359  1.7680 -0.0523  0.3564
  136POPC  C311 1192   3.440   3.706   5.268 -0.4779  0.3148 -0.0841
  136POPC  H11X 1193   3.365   3.770   5.319  0.9235  0.8738  1.3847
  136POPC  H11Y 1194   3.400   3.603   5.253  0.4179 -0.0411 -0.1564
  136POPC  C312 1195   3.471   3.750   5.126 -0.7169 -0.6979 -0.7499
  136POPC  H12X 1196   3.579   3.749   5.102 -0.6513 -0.1516 -0.4923
  136POPC  H12Y 1197   3.454   3.860   5.116  0.1853 -0.3685  1.0205
  136POPC  C313 1198   3.384   3.676   5.023 -0.8719  0.6696 -0.2831
  136POPC  H13X 1199   3.407   3.567   5.018 -0.0132  0.8231  0.1229
  136POPC  H13Y 1200   3.419   3.720   4.927  4.2395 -0.9603  0.5220
  136POPC  C314 1201   3.234   3.705   5.036  0.1829 -0.4810 -0.1225
  136POPC  H14X 1202   3.201   3.811   5.031  0.8749 -0.1104  1.9276
  136POPC  H14Y 1203   3.189   3.662   5.128  0.1491  2.6181  1.4293
  136POPC  C315 1204   3.153   3.643   4.918 -0.2174 -1.0604 -0.4120
  136POPC  H15X 1205   3.180   3.535   4.911 -0.4493 -1.2792  1.5420
  136POPC  H15Y 1206   3.201   3.686   4.828  2.1909  0.6829  1.5615
  136POPC  C316 1207   3.006   3.679   4.931  0.3403 -0.0250  0.2330
  136POPC  H16X 1208   2.960   3.623   5.014 -0.2428 -2.1624 -1.4477
  136POPC  H16Y 1209   2.950   3.658   4.838 -0.0849  0.1486  0.4458
  136POPC  H16Z 1210   2.998   3.790   4.942  2.3262  0.0788  0.9999
  137POPC     N 1211   4.090   2.420   7.020  0.1947  0.4570  0.2765
  137POPC   C12 1212   4.041   2.492   6.896  0.1023 -0.0018  0.2053
  137POPC  H12A 1213   3.963   2.558   6.929  1.4466  2.4752 -1.2421
  137POPC  H12B 1214   4.005   2.421   6.823  1.8480 -2.1502  1.2897
  137POPC   C13 1215   4.204   2.320   6.990  0.0477  0.0402 -0.0600
  137POPC  H13A 1216   4.232   2.264   7.078 -1.5652  0.9359  1.0792
  137POPC  H13B 1217   4.174   2.253   6.911 -0.0358 -0.9813  0.8131
  137POPC  H13C 1218   4.286   2.377   6.948 -1.1425  0.4565 -1.9617
  137POPC   C14 1219   4.131   2.518   7.129 -0.1881 -0.0613  0.1995
  137POPC  H14A 1220   4.048   2.584   7.151 -0.6262  0.1536 -1.8778
  137POPC  H14B 1221   4.156   2.465   7.220  1.0365 -0.8936 -0.5932
  137POPC  H14C 1222   4.211   2.584   7.098 -1.2438  1.4838  0.6407
  137POPC   C15 1223   3.987   2.337   7.072 -0.1230  0.0261 -0.3056
  137POPC  H15A 1224   3.950   2.264   7.001 -0.3436 -0.8479  0.6749
  137POPC  H15B 1225   3.900   2.397   7.094  0.4626  0.4195  1.0621
  137POPC  H15C 1226   4.015   2.281   7.160  0.2969  0.3976 -0.2040
  137POPC   C11 1227   4.149   2.572   6.819  0.5368  0.4996 -0.6942
  137POPC  H11A 1228   4.198   2.643   6.890 -2.1233  1.7719 -0.0179
  137POPC  H11B 1229   4.098   2.635   6.743  1.2353  1.8809 -0.0487
  137POPC     P 1230   4.211   2.401   6.638  0.2163  0.4505  0.1129
  137POPC   O13 1231   4.080   2.332   6.666 -0.1172 -0.2634 -0.1089
  137POPC   O14 1232   4.319   2.312   6.595 -0.1973  0.1667 -0.3711
  137POPC   O12 1233   4.255   2.499   6.754  0.9203  0.5135  0.0245
  137POPC   O11 1234   4.186   2.493   6.510  0.5428  0.6707 -0.1538
  137POPC    C1 1235   4.263   2.615   6.487 -0.0245 -0.2384 -0.2411
  137POPC    HA 1236   4.351   2.627   6.553  0.6435 -0.9028 -0.9862
  137POPC    HB 1237   4.192   2.695   6.517 -0.7563 -1.1721  0.6080
  137POPC    C2 1238   4.303   2.627   6.341 -0.5268  0.0175 -0.5454
  137POPC    HS 1239   4.359   2.722   6.330 -1.0529  0.3916 -0.0107
  137POPC   O21 1240   4.203   2.608   6.245  0.2105  0.2083  0.5402
  137POPC   C21 1241   4.140   2.711   6.201 -0.1790  0.1072 -0.6399
  137POPC   O22 1242   4.135   2.821   6.248 -1.4048  0.2572  0.1223
  137POPC   C22 1243   4.055   2.662   6.090 -0.3767  0.1048  0.2232
  137POPC   H2R 1244   3.991   2.739   6.043 -1.7917 -0.6928  0.7998
  137POPC   H2S 1245   3.977   2.593   6.128 -0.5501  0.5235  0.6349
  137POPC    C3 1246   4.392   2.504   6.316 -0.2226 -0.1582 -0.0157
  137POPC    HX 1247   4.328   2.413   6.323  1.3276 -1.2514  0.6351
  137POPC    HY 1248   4.474   2.493   6.391  2.4259 -0.0272 -2.6881
  137POPC   O31 1249   4.459   2.526   6.194 -0.3595  0.3737  0.0051
  137POPC   C31 1250   4.506   2.407   6.143  0.2687  0.2037 -0.4068
  137POPC   O32 1251   4.472   2.296   6.176  0.1581  0.0436 -0.0444
  137POPC   C32 1252   4.604   2.427   6.021 -0.0164  0.0656  0.2429
  137POPC   H2X 1253   4.637   2.325   5.990  1.5936  0.5135  0.4051
  137POPC   H2Y 1254   4.691   2.487   6.056 -0.4573  1.4907 -1.0104
  137POPC   C23 1255   4.136   2.593   5.976 -0.4240 -0.0490  0.5929
  137POPC   H3R 1256   4.063   2.521   5.936  0.8237 -0.2086 -1.5261
  137POPC   H3S 1257   4.217   2.531   6.021 -1.1273 -1.0553  0.4950
  137POPC   C24 1258   4.190   2.684   5.866  0.0239 -0.1469 -0.2489
  137POPC   H4R 1259   4.258   2.623   5.803  0.4217 -0.0037  0.0357
  137POPC   H4S 1260   4.252   2.764   5.912  1.2656 -0.1389 -1.8151
  137POPC   C25 1261   4.078   2.750   5.780  0.1562  0.3281  0.5818
  137POPC   H5R 1262   3.998   2.807   5.831 -0.5901  1.1540 -1.4191
  137POPC   H5S 1263   4.024   2.668   5.728  0.5787 -0.5453  1.4735
  137POPC   C26 1264   4.139   2.841   5.674 -0.6185 -0.5110 -0.0462
  137POPC   H6R 1265   4.205   2.770   5.619 -0.6785  0.0265 -0.8280
  137POPC   H6S 1266   4.193   2.925   5.722 -0.4768 -0.5231 -0.1842
  137POPC   C27 1267   4.050   2.913   5.577 -0.9440  0.0698 -0.2573
  137POPC   H7R 1268   4.112   2.967   5.501  0.9537 -0.4062  0.8892
  137POPC   H7S 1269   3.999   2.993   5.635 -0.9836  1.0367 -1.5860
  137POPC   C28 1270   3.952   2.822   5.503  0.1434 -0.4128 -0.2775
  137POPC   H8R 1271   3.878   2.779   5.574  1.5199 -0.3445  1.2487
  137POPC   H8S 1272   4.005   2.728   5.476 -0.6906 -1.6890  2.2233
  137POPC   C29 1273   3.890   2.876   5.378 -0.8324 -0.0182  0.8430
  137POPC   H91 1274   3.781   2.887   5.384 -1.0296 -0.9203 -0.5873
  137POPC  C210 1275   3.965   2.903   5.264 -0.1754  0.0768  0.2209
  137POPC  H101 1276   3.911   2.942   5.177 -0.0049  1.3637  0.6578
  137POPC  C211 1277   4.112   2.879   5.243  0.3500  0.6620  0.2521
  137POPC  H11R 1278   4.156   2.833   5.333 -0.2003 -0.4450 -0.0245
  137POPC  H11S 1279   4.170   2.974   5.236  0.6366  0.7580  3.0359
  137POPC  C212 1280   4.123   2.779   5.123  0.2114 -0.0607  0.6451
  137POPC  H12R 1281   4.066   2.684   5.132 -0.7049  0.1482 -2.0326
  137POPC  H12S 1282   4.232   2.755   5.121 -0.4401 -3.5412 -1.5774
  137POPC  C213 1283   4.077   2.842   4.991  0.3754  0.5553  0.0901
  137POPC  H13R 1284   4.113   2.947   4.985  4.2095 -0.6450 -0.7073
  137POPC  H13S 1285   3.966   2.848   4.992  0.3226  0.0555  2.0259
  137POPC  C214 1286   4.129   2.752   4.881 -0.1926  0.4847  0.1995
  137POPC  H14R 1287   4.062   2.664   4.888 -0.3037  0.6147  0.8923
  137POPC  H14S 1288   4.232   2.711   4.892 -1.3287 -2.8084 -0.1983
  137POPC  C215 1289   4.134   2.822   4.738 -0.7029 -0.3267 -0.1450
  137POPC  H15R 1290   4.204   2.909   4.742 -3.3641  1.9181  1.8255
  137POPC  H15S 1291   4.039   2.877   4.725  0.6673  1.6771 -2.6492
  137POPC  C216 1292   4.150   2.733   4.618  0.1401 -0.2505 -0.2946
  137POPC  H16R 1293   4.105   2.787   4.531  0.7450 -3.4085 -2.7600
  137POPC  H16S 1294   4.092   2.641   4.636 -1.1989  0.4219 -1.0711
  137POPC  C217 1295   4.295   2.702   4.594  0.2107 -0.1594 -0.6468
  137POPC  H17R 1296   4.336   2.656   4.687 -1.6372 -0.9318 -0.1679
  137POPC  H17S 1297   4.335   2.803   4.576 -2.2641  0.7004 -1.8275
  137POPC  C218 1298   4.324   2.614   4.473 -0.3426  0.1883 -0.4235
  137POPC  H18R 1299   4.433   2.604   4.454  0.1241  5.5446 -2.2572
  137POPC  H18S 1300   4.297   2.673   4.384 -2.8309 -1.0303 -0.5706
  137POPC  H18T 1301   4.271   2.517   4.483  1.4336 -1.1065 -2.6420
  137POPC   C33 1302   4.527   2.494   5.902  0.0008 -0.2120  0.6474
  137POPC   H3X 1303   4.493   2.592   5.939 -0.2856 -0.6023  1.4308
  137POPC   H3Y 1304   4.441   2.428   5.876 -0.1245  0.1043  0.2317
  137POPC   C34 1305   4.627   2.526   5.787 -0.6686  0.2074 -0.2393
  137POPC   H4X 1306   4.713   2.585   5.825 -0.9887  1.8956 -1.9719
  137POPC   H4Y 1307   4.579   2.596   5.716  3.6490 -0.0762 -3.9006
  137POPC   C35 1308   4.678   2.401   5.720 -0.2430 -0.5433 -0.2255
  137POPC   H5X 1309   4.591   2.350   5.673  0.4228 -2.0820  0.1656
  137POPC   H5Y 1310   4.726   2.329   5.789 -0.3310  0.2223  0.6470
  137POPC   C36 1311   4.776   2.428   5.603 -0.5882 -0.9263 -0.5963
  137POPC   H6X 1312   4.882   2.407   5.628 -0.3144  0.2275 -0.7379
  137POPC   H6Y 1313   4.770   2.535   5.574  0.9771 -0.4934  0.5477
  137POPC   C37 1314   4.745   2.344   5.488  0.0707  0.0330  0.7694
  137POPC   H7X 1315   4.640   2.364   5.456  0.5569  0.4738 -0.5950
  137POPC   H7Y 1316   4.748   2.239   5.526 -1.1073 -0.7347 -1.1455
  137POPC   C38 1317   4.837   2.368   5.374 -0.3340  0.3065  0.0394
  137POPC   H8X 1318   4.940   2.347   5.409  0.0723  2.0170 -0.0469
  137POPC   H8Y 1319   4.831   2.474   5.342  0.4744 -0.0655 -1.4142
  137POPC   C39 1320   4.810   2.286   5.254 -0.6315  0.2435  0.3196
  137POPC   H9X 1321   4.703   2.309   5.238 -0.3900  0.5559 -0.9596
  137POPC   H9Y 1322   4.833   2.183   5.289  0.0404  0.6892  1.2423
  137POPC  C310 1323   4.894   2.325   5.139 -0.1832 -0.3610 -0.6530
  137POPC  H10X 1324   5.003   2.324   5.160 -0.6882  0.4786  2.4728
  137POPC  H10Y 1325   4.864   2.421   5.091  0.5871 -0.4505 -1.3357
  137POPC  C311 1326   4.881   2.221   5.033 -0.1002  0.4592  0.5782
  137POPC  H11X 1327   4.772   2.205   5.018  0.0200 -0.2328  0.4038
  137POPC  H11Y 1328   4.937   2.130   5.063  1.4076  1.2905  0.3707
  137POPC  C312 1329   4.948   2.259   4.901 -0.2560  0.3286 -0.0174
  137POPC  H12X 1330   4.978   2.171   4.839  1.5858  1.0238 -0.1864
  137POPC  H12Y 1331   5.043   2.314   4.916  0.9976 -0.4697 -3.7664
  137POPC  C313 1332   4.859   2.332   4.805  0.6319 -0.0973 -0.9154
  137POPC  H13X 1333   4.848   2.434   4.847  2.4422 -0.1189 -0.2958
  137POPC  H13Y 1334   4.762   2.278   4.797  0.5253  0.0736 -0.7558
  137POPC  C314 1335   4.923   2.334   4.666 -0.8526  0.3517 -0.0387
  137POPC  H14X 1336   4.842   2.367   4.598 -0.8790 -0.1149 -0.2391
  137POPC  H14Y 1337   4.955   2.229   4.645  1.6421  0.5865  1.9999
  137POPC  C315 1338   5.039   2.435   4.646 -0.2254  0.3373  0.0696
  137POPC  H15X 1339   5.113   2.423   4.728 -1.5361 -0.3139  1.2102
  137POPC  H15Y 1340   4.990   2.534   4.660 -1.1454 -0.1883  0.7069
  137POPC  C316 1341   5.112   2.422   4.510  0.3962 -0.0445  0.4374
  137POPC  H16X 1342   5.189   2.342   4.503 -0.9291 -1.3177 -0.0295
  137POPC  H16Y 1343   5.165   2.520   4.505  0.4837 -0.1104  0.0089
  137POPC  H16Z 1344   5.036   2.398   4.433 -0.0549 -1.2332  1.2350
  138POPC     N 1345   5.675   1.061   7.271 -0.4761  0.1581  0.4341
  138POPC   C12 1346   5.666   1.061   7.119  0.3250 -0.6517 -0.1576
  138POPC  H12A 1347   5.602   1.141   7.085  0.2682 -0.7209 -0.2129
  138POPC  H12B 1348   5.608   0.977   7.084 -1.6543 -0.2502  1.8602
  138POPC   C13 1349   5.770   1.166   7.330  0.0129 -0.4185 -0.2291
  138POPC  H13A 1350   5.869   1.143   7.291 -0.6889  0.2667 -2.5887
  138POPC  H13B 1351   5.757   1.269   7.301 -0.2674 -0.3634  0.0897
  138POPC  H13C 1352   5.745   1.160   7.435 -0.6105 -0.3281 -0.3721
  138POPC   C14 1353   5.542   1.075   7.328 -0.2789  0.3815 -0.0692
  138POPC  H14A 1354   5.472   1.005   7.283  0.0580  1.0963 -1.7764
  138POPC  H14B 1355   5.552   1.044   7.431  1.4359  1.7806  0.2253
  138POPC  H14C 1356   5.496   1.172   7.321 -0.9581  0.2288  1.7839
  138POPC   C15 1357   5.726   0.929   7.307 -0.7662 -0.3306  0.0583
  138POPC  H15A 1358   5.716   0.915   7.414  1.1719  0.9781  0.4655
  138POPC  H15B 1359   5.831   0.920   7.284 -0.6627 -1.1156  0.7929
  138POPC  H15C 1360   5.679   0.849   7.251 -1.9869  0.9249 -0.7990
  138POPC   C11 1361   5.801   1.078   7.042  0.0452  0.5977 -0.0737
  138POPC  H11A 1362   5.851   1.174   7.069  0.5952  0.1830  0.4230
  138POPC  H11B 1363   5.783   1.084   6.933 -2.6220 -2.8274  0.0218
  138POPC     P 1364   6.018   0.932   6.977  0.2821 -0.0151 -0.2675
  138POPC   O13 1365   6.047   0.786   6.953 -0.7745  0.1359  0.4052
  138POPC   O14 1366   6.119   1.025   7.034 -0.1486  0.5697 -0.1848
  138POPC   O12 1367   5.887   0.960   7.063  0.2435  0.2281 -0.0848
  138POPC   O11 1368   5.980   0.984   6.830  0.0511  1.1702 -0.3136
  138POPC    C1 1369   6.024   1.100   6.762 -0.4924  1.3036  0.0429
  138POPC    HA 1370   6.133   1.116   6.777 -0.4828 -1.1409  4.5243
  138POPC    HB 1371   5.951   1.177   6.794 -0.9658  0.6108  0.6523
  138POPC    C2 1372   6.018   1.078   6.607  0.5805  0.5177  0.2404
  138POPC    HS 1373   6.086   1.156   6.566  0.1675  0.2295 -1.0483
  138POPC   O21 1374   5.880   1.084   6.555 -0.0361 -0.7013  0.0027
  138POPC   C21 1375   5.834   1.207   6.530  0.1709 -0.3070 -0.5217
  138POPC   O22 1376   5.902   1.311   6.544 -0.2974  0.1316  0.4302
  138POPC   C22 1377   5.689   1.203   6.486  0.1585  0.1485 -0.5471
  138POPC   H2R 1378   5.624   1.237   6.569  0.2314 -1.4050  0.1728
  138POPC   H2S 1379   5.660   1.103   6.449 -0.2748  0.8497 -2.2274
  138POPC    C3 1380   6.078   0.943   6.558  0.9443  0.9455  0.4073
  138POPC    HX 1381   6.026   0.867   6.621 -0.4393  2.4115  1.0913
  138POPC    HY 1382   6.187   0.958   6.571  0.8990  2.3712 -0.6269
  138POPC   O31 1383   6.051   0.924   6.420 -0.1538 -0.4475  0.4694
  138POPC   C31 1384   6.038   0.805   6.367 -0.3056  0.0890 -0.4039
  138POPC   O32 1385   6.016   0.701   6.428 -0.1367 -0.2396  0.2077
  138POPC   C32 1386   6.039   0.821   6.217  0.4408 -0.0979  0.7347
  138POPC   H2X 1387   6.055   0.723   6.167  0.6969 -0.1646  0.9467
  138POPC   H2Y 1388   6.126   0.887   6.194  0.6575 -1.1676 -1.9578
  138POPC   C23 1389   5.674   1.300   6.373  0.5312 -0.4175  0.6888
  138POPC   H3R 1390   5.755   1.376   6.368  1.8648 -1.7732  0.7632
  138POPC   H3S 1391   5.578   1.355   6.370  0.8027  0.0399  0.1745
  138POPC   C24 1392   5.693   1.235   6.234  0.6041 -0.3706 -0.3084
  138POPC   H4R 1393   5.779   1.166   6.224 -1.3812 -3.4402  2.0849
  138POPC   H4S 1394   5.695   1.318   6.160 -1.6328 -1.5216 -1.7866
  138POPC   C25 1395   5.565   1.159   6.184 -0.4548 -0.0475  0.3970
  138POPC   H5R 1396   5.478   1.225   6.167 -1.4098 -1.9896 -3.1588
  138POPC   H5S 1397   5.536   1.088   6.264 -1.5688 -2.6635 -2.1456
  138POPC   C26 1398   5.605   1.080   6.060  0.2921 -0.1734 -0.1166
  138POPC   H6R 1399   5.662   0.988   6.082  2.4006  1.4965  1.9566
  138POPC   H6S 1400   5.663   1.146   5.992  0.5450 -0.2293  0.0442
  138POPC   C27 1401   5.482   1.041   5.970  0.5022 -0.0345  0.3806
  138POPC   H7R 1402   5.534   1.036   5.871  1.8057 -1.1963  1.0875
  138POPC   H7S 1403   5.404   1.119   5.982 -1.0428 -1.1467 -1.6779
  138POPC   C28 1404   5.419   0.898   5.996 -0.1780 -0.2106  0.0198
  138POPC   H8R 1405   5.315   0.893   5.958 -0.8773  2.4961  1.3062
  138POPC   H8S 1406   5.407   0.890   6.106  0.5867 -2.6851 -0.0142
  138POPC   C29 1407   5.484   0.774   5.942  0.9834 -0.3305 -0.1190
  138POPC   H91 1408   5.529   0.711   6.020 -0.8652 -1.6616 -0.0636
  138POPC  C210 1409   5.478   0.732   5.813 -0.1161 -0.5095 -0.2234
  138POPC  H101 1410   5.531   0.638   5.794  2.5501  1.0814 -1.1952
  138POPC  C211 1411   5.416   0.795   5.690  0.6762 -0.6304  0.1121
  138POPC  H11R 1412   5.452   0.738   5.601  0.0651  2.5894 -2.3822
  138POPC  H11S 1413   5.445   0.901   5.680  0.8763 -0.7082 -0.1540
  138POPC  C212 1414   5.261   0.797   5.697 -0.4895  0.5817  0.1102
  138POPC  H12R 1415   5.213   0.874   5.762 -0.2323  0.9724 -0.1526
  138POPC  H12S 1416   5.224   0.698   5.730  0.8419 -0.7314 -2.0916
  138POPC  C213 1417   5.197   0.819   5.555 -0.5496 -0.1010 -0.8369
  138POPC  H13R 1418   5.223   0.924   5.527  0.9146 -0.5580 -1.2592
  138POPC  H13S 1419   5.086   0.816   5.568 -0.2781 -2.7337  1.8713
  138POPC  C214 1420   5.226   0.715   5.440 -0.2551  0.0425 -0.5023
  138POPC  H14R 1421   5.210   0.608   5.465 -0.2342  0.4620  1.5556
  138POPC  H14S 1422   5.336   0.725   5.423 -0.1473 -0.4776 -0.1448
  138POPC  C215 1423   5.154   0.740   5.307  0.9094  0.0662 -0.4329
  138POPC  H15R 1424   5.122   0.846   5.304  1.5258  0.2560 -0.4661
  138POPC  H15S 1425   5.066   0.671   5.299  1.9339 -1.2763 -0.5315
  138POPC  C216 1426   5.256   0.720   5.192  0.1009  0.1550  0.4546
  138POPC  H16R 1427   5.280   0.612   5.194  0.1947  0.1870  1.3744
  138POPC  H16S 1428   5.349   0.779   5.205 -0.3084  1.2660 -1.2156
  138POPC  C217 1429   5.195   0.755   5.056  0.0314 -0.1428  0.3596
  138POPC  H17R 1430   5.198   0.865   5.042  1.5808 -0.3740 -1.7573
  138POPC  H17S 1431   5.090   0.722   5.042  0.6835 -1.6426 -1.4885
  138POPC  C218 1432   5.287   0.697   4.938  0.0704 -0.6125  0.4427
  138POPC  H18R 1433   5.268   0.749   4.842  0.3667  0.0095  0.7113
  138POPC  H18S 1434   5.266   0.590   4.921  0.1038 -0.2564 -2.3075
  138POPC  H18T 1435   5.395   0.712   4.960 -0.1226  0.4562  0.7616
  138POPC   C33 1436   5.899   0.864   6.162  0.2012  0.0512 -0.0424
  138POPC   H3X 1437   5.861   0.963   6.195  1.8854  0.0707  2.0628
  138POPC   H3Y 1438   5.819   0.792   6.190 -0.7848  1.9588  2.4811
  138POPC   C34 1439   5.901   0.875   6.010 -0.8559 -0.4896 -0.8199
  138POPC   H4X 1440   5.796   0.876   5.976 -1.3292 -1.4057  0.5295
  138POPC   H4Y 1441   5.953   0.791   5.959  1.8127 -0.2371  1.2572
  138POPC   C35 1442   5.967   1.012   5.967 -0.2691  0.3045 -0.5132
  138POPC   H5X 1443   6.063   1.028   6.020  1.5374 -3.0028 -2.4958
  138POPC   H5Y 1444   5.888   1.085   5.995 -1.2070 -0.7646 -0.3138
  138POPC   C36 1445   5.991   1.024   5.818  1.3561 -0.6115 -0.2727
  138POPC   H6X 1446   6.050   0.938   5.779  0.5611 -1.1970 -0.2149
  138POPC   H6Y 1447   6.052   1.116   5.807  1.1275 -0.2814  1.0325
  138POPC   C37 1448   5.859   1.037   5.739  0.0095  0.6780 -0.0800
  138POPC   H7X 1449   5.793   1.110   5.790 -0.9942 -0.8119  0.8304
  138POPC   H7Y 1450   5.809   0.938   5.733 -3.2251  2.2621 -2.1891
  138POPC   C38 1451   5.877   1.089   5.597 -0.5457  0.0400  0.3650
  138POPC   H8X 1452   5.921   1.011   5.532  1.4349 -0.6025  2.3675
  138POPC   H8Y 1453   5.934   1.185   5.597  0.7765 -0.7179 -0.7129
  138POPC   C39 1454   5.735   1.117   5.538  0.2737  0.6695 -0.0968
  138POPC   H9X 1455   5.688   1.199   5.597 -1.3862 -0.3489  0.0725
  138POPC   H9Y 1456   5.674   1.025   5.542 -0.7931  1.3546 -0.0666
  138POPC  C310 1457   5.738   1.157   5.386  0.3454  0.5046 -0.4291
  138POPC  H10X 1458   5.737   1.063   5.327  0.1090 -0.4412  1.0540
  138POPC  H10Y 1459   5.822   1.227   5.366 -0.8006  2.9018  2.3923
  138POPC  C311 1460   5.602   1.234   5.350  0.2534  0.1330 -0.2026
  138POPC  H11X 1461   5.601   1.312   5.429 -1.2857  0.7455 -0.7898
  138POPC  H11Y 1462   5.508   1.176   5.362 -0.8903  2.3307  2.5164
  138POPC  C312 1463   5.616   1.279   5.198 -0.8631  0.3305 -0.1749
  138POPC  H12X 1464   5.717   1.325   5.191 -0.0863 -0.8373  2.2578
  138POPC  H12Y 1465   5.535   1.352   5.175 -0.6349  0.9806  1.0013
  138POPC  C313 1466   5.603   1.159   5.109  0.9041 -0.0674  0.3598
  138POPC  H13X 1467   5.515   1.103   5.146 -0.0930  3.1553  3.4544
  138POPC  H13Y 1468   5.697   1.101   5.125  3.5309  3.0091 -2.3487
  138POPC  C314 1469   5.591   1.209   4.962  0.0608 -1.2331  0.1686
  138POPC  H14X 1470   5.611   1.124   4.893 -2.1886 -1.7792  0.1063
  138POPC  H14Y 1471   5.676   1.278   4.946  0.5927 -1.9615 -0.2179
  138POPC  C315 1472   5.463   1.287   4.927 -0.3062 -0.2080 -0.2051
  138POPC  H15X 1473   5.447   1.387   4.974 -0.8516 -0.3662 -0.0500
  138POPC  H15Y 1474   5.380   1.214   4.939  2.2835 -3.2629  0.1622
  138POPC  C316 1475   5.469   1.335   4.780  0.6198 -0.2743 -0.1387
  138POPC  H16X 1476   5.570   1.375   4.761  0.1947  1.1575  0.4597
  138POPC  H16Y 1477   5.389   1.411   4.763 -0.1604 -0.1828  3.2066
  138POPC  H16Z 1478   5.451   1.249   4.711 -0.0005 -0.2497 -0.0195
  139POPC     N 1479   4.024   0.159   6.907 -0.1154 -0.3021  0.2995
  139POPC   C12 1480   3.946   0.053   6.833 -0.4361  0.4071 -0.9029
  139POPC  H12A 1481   3.881   0.006   6.906  2.3767 -0.8541  0.9343
  139POPC  H12B 1482   4.012  -0.024   6.797  1.7021  1.3039  0.9312
  139POPC   C13 1483   4.111   0.240   6.812  0.0996  0.8545  0.0298
  139POPC  H13A 1484   4.182   0.176   6.761 -0.3684 -0.4569  0.9789
  139POPC  H13B 1485   4.044   0.268   6.732 -1.6888 -0.2788  1.0787
  139POPC  H13C 1486   4.161   0.325   6.856  0.7014 -0.4071  1.8897
  139POPC   C14 1487   3.925   0.256   6.972 -0.5407  1.3882  0.6123
  139POPC  H14A 1488   3.851   0.293   6.901 -0.2109 -0.3755 -0.7283
  139POPC  H14B 1489   3.864   0.209   7.048 -0.3250 -1.2360 -0.7066
  139POPC  H14C 1490   3.983   0.335   7.016  2.1250 -1.7873  3.3884
  139POPC   C15 1491   4.116   0.090   7.014  0.6455 -0.1029  0.6087
  139POPC  H15A 1492   4.172   0.160   7.074 -1.3492  1.9104  0.2323
  139POPC  H15B 1493   4.188   0.028   6.962 -0.9856 -0.6788 -1.0597
  139POPC  H15C 1494   4.059   0.025   7.078 -0.1357  0.7739  0.8239
  139POPC   C11 1495   3.854   0.102   6.719 -0.2405  0.2233  0.4216
  139POPC  H11A 1496   3.795   0.020   6.673 -1.8210  1.9229 -0.7167
  139POPC  H11B 1497   3.920   0.137   6.637  1.7204  0.6661  2.1066
  139POPC     P 1498   3.721   0.318   6.654 -0.1185  0.0232 -0.1336
  139POPC   O13 1499   3.783   0.449   6.693 -0.4051  0.4801  0.3203
  139POPC   O14 1500   3.573   0.324   6.646  0.0135 -0.3228  0.0768
  139POPC   O12 1501   3.766   0.206   6.757  0.2162 -0.0027  0.1863
  139POPC   O11 1502   3.775   0.282   6.516 -0.3417  0.1910 -0.1063
  139POPC    C1 1503   3.689   0.257   6.406  1.0801 -0.1590 -0.7641
  139POPC    HA 1504   3.672   0.360   6.366  1.4231 -0.2967 -1.2846
  139POPC    HB 1505   3.593   0.213   6.439  2.1152 -1.6997  0.2972
  139POPC    C2 1506   3.751   0.171   6.299 -1.3069 -0.2638  1.3395
  139POPC    HS 1507   3.696   0.205   6.209  0.6183  2.2252  0.9722
  139POPC   O21 1508   3.738   0.032   6.321 -0.3576  0.2402 -0.2258
  139POPC   C21 1509   3.623   6.425   6.291  0.3655 -0.9300  0.0547
  139POPC   O22 1510   3.526   0.037   6.241  0.2518 -0.1059 -0.5711
  139POPC   C22 1511   3.617   6.290   6.348 -0.9266  0.2845 -0.0138
  139POPC   H2R 1512   3.613   6.294   6.459  0.1340 -2.3249  0.1952
  139POPC   H2S 1513   3.711   6.239   6.320 -1.1629  0.0076 -0.3079
  139POPC    C3 1514   3.893   0.213   6.267  0.9693  0.0999 -0.7384
  139POPC    HX 1515   3.963   0.173   6.344 -0.1571 -0.6143 -0.0606
  139POPC    HY 1516   3.894   0.324   6.271 -2.5775  0.2115  1.1896
  139POPC   O31 1517   3.917   0.159   6.138  0.1830  0.0256 -0.2797
  139POPC   C31 1518   3.975   0.234   6.044  0.1479  0.7709  0.6449
  139POPC   O32 1519   4.029   0.339   6.062 -0.3276 -0.0890 -0.0058
  139POPC   C32 1520   3.979   0.155   5.911  1.1683 -0.3881 -0.4285
  139POPC   H2X 1521   3.943   0.230   5.837  1.9401  0.2150 -0.2025
  139POPC   H2Y 1522   3.902   0.076   5.923 -0.9053  1.6546  0.2798
  139POPC   C23 1523   3.507   6.197   6.290  0.1094 -0.4152  0.3051
  139POPC   H3R 1524   3.531   6.177   6.183 -0.4752 -1.3895  0.3358
  139POPC   H3S 1525   3.407   6.246   6.280  0.4762  0.2719 -0.0765
  139POPC   C24 1526   3.494   6.074   6.384 -0.0641 -0.1034  0.5306
  139POPC   H4R 1527   3.446   6.112   6.477 -0.8036  1.6758 -0.5155
  139POPC   H4S 1528   3.591   6.025   6.405 -0.2940 -0.4907  0.7065
  139POPC   C25 1529   3.389   5.968   6.345  0.1576 -0.4498 -0.5621
  139POPC   H5R 1530   3.288   6.009   6.327  0.5693  1.1689  0.5783
  139POPC   H5S 1531   3.383   5.908   6.439 -1.9942 -2.0750 -1.6491
  139POPC   C26 1532   3.434   5.881   6.230 -0.3876  0.0718 -0.3640
  139POPC   H6R 1533   3.540   5.855   6.253 -0.3957 -0.4475 -0.8926
  139POPC   H6S 1534   3.432   5.945   6.140  0.2003  1.6057  0.6739
  139POPC   C27 1535   3.341   5.758   6.219  0.3049  0.6696 -0.1370
  139POPC   H7R 1536   3.235   5.783   6.241 -1.0101 -1.1635 -3.6418
  139POPC   H7S 1537   3.384   5.675   6.280  0.7155  0.9300 -0.0722
  139POPC   C28 1538   3.318   5.698   6.078 -0.1091 -0.6851  1.1618
  139POPC   H8R 1539   3.254   5.609   6.095  0.2756 -1.2804 -0.3251
  139POPC   H8S 1540   3.422   5.668   6.051 -0.0796 -0.2091  0.7210
  139POPC   C29 1541   3.249   5.789   5.977 -0.0822 -0.1386  0.5761
  139POPC   H91 1542   3.256   5.896   6.002 -1.2188 -0.3672  1.9656
  139POPC  C210 1543   3.168   5.754   5.875  0.3775 -0.1362  0.2016
  139POPC  H101 1544   3.114   5.825   5.811  1.5347 -0.9625 -1.7803
  139POPC  C211 1545   3.151   5.610   5.822  0.1073 -0.4856  0.1749
  139POPC  H11R 1546   3.047   5.597   5.785  1.0986 -1.5501 -2.5019
  139POPC  H11S 1547   3.162   5.535   5.903 -0.1860  0.5592  1.2177
  139POPC  C212 1548   3.248   5.580   5.699 -0.6593 -0.4265  0.2832
  139POPC  H12R 1549   3.250   5.471   5.674 -1.1840 -0.4501  0.3236
  139POPC  H12S 1550   3.349   5.622   5.717 -1.3665  2.5467 -1.9079
  139POPC  C213 1551   3.207   5.656   5.573 -0.2261 -0.5904  0.0531
  139POPC  H13R 1552   3.271   5.747   5.569  0.3079 -0.9715 -2.8045
  139POPC  H13S 1553   3.101   5.687   5.583 -0.3599 -1.7275  3.1872
  139POPC  C214 1554   3.230   5.569   5.442 -0.8683 -0.2440  0.5695
  139POPC  H14R 1555   3.148   5.494   5.437 -0.7156 -0.3858  0.1217
  139POPC  H14S 1556   3.326   5.513   5.448  0.1242  1.4552  0.9318
  139POPC  C215 1557   3.216   5.657   5.314 -0.2972  0.1844 -0.3388
  139POPC  H15R 1558   3.292   5.738   5.314 -1.3515  1.2607 -2.3404
  139POPC  H15S 1559   3.117   5.706   5.310 -0.6025 -0.2943  1.0986
  139POPC  C216 1560   3.241   5.574   5.190  0.6031  0.6080 -0.7210
  139POPC  H16R 1561   3.185   5.478   5.195  2.4802 -0.5015  0.5637
  139POPC  H16S 1562   3.350   5.555   5.190  0.2007 -2.3767  1.0814
  139POPC  C217 1563   3.203   5.650   5.056 -0.4038 -0.6304  0.1580
  139POPC  H17R 1564   3.102   5.697   5.066  1.1467  3.8644 -2.3614
  139POPC  H17S 1565   3.197   5.580   4.971 -2.2762  1.9632 -2.0084
  139POPC  C218 1566   3.311   5.761   5.028  0.0924  0.1066  0.4103
  139POPC  H18R 1567   3.405   5.727   4.981 -1.0101  0.5841 -2.3824
  139POPC  H18S 1568   3.322   5.813   5.125 -2.4511 -0.3639  1.0423
  139POPC  H18T 1569   3.259   5.827   4.954 -2.0804  0.4646  2.1335
  139POPC   C33 1570   4.120   0.112   5.870  1.2814 -0.0205 -0.3339
  139POPC   H3X 1571   4.145   0.028   5.939 -2.7268  2.1158  4.3479
  139POPC   H3Y 1572   4.197   0.190   5.888  1.0229  0.2613 -0.4444
  139POPC   C34 1573   4.138   0.086   5.724 -0.0047  0.5166 -0.2098
  139POPC   H4X 1574   4.122   0.175   5.660 -1.5492 -0.2783 -0.9896
  139POPC   H4Y 1575   4.062   0.018   5.679  0.9844 -0.0696 -1.0112
  139POPC   C35 1576   4.277   0.030   5.691 -0.5274  0.0217  0.0742
  139POPC   H5X 1577   4.294  -0.069   5.739  0.6065 -0.4268 -1.1972
  139POPC   H5Y 1578   4.347   0.100   5.742 -1.9289  0.8898  0.8877
  139POPC   C36 1579   4.303   0.022   5.536  0.4481 -0.4194  0.5051
  139POPC   H6X 1580   4.291   0.124   5.493 -2.5379 -0.4468  1.0274
  139POPC   H6Y 1581   4.224  -0.041   5.490 -0.4962  2.4366 -2.2117
  139POPC   C37 1582   4.430   6.395   5.498 -0.1569 -0.4375  0.0731
  139POPC   H7X 1583   4.507   6.471   5.523 -1.1357  0.8168 -0.6375
  139POPC   H7Y 1584   4.432   6.375   5.389  1.0596  2.0260 -0.4305
  139POPC   C38 1585   4.455   6.269   5.576  0.7530  1.1373 -0.3044
  139POPC   H8X 1586   4.372   6.199   5.557  0.2254  1.8319 -0.6107
  139POPC   H8Y 1587   4.454   6.287   5.685  1.4532 -0.9640  0.0804
  139POPC   C39 1588   4.594   6.195   5.562  0.3042 -0.1919 -0.1398
  139POPC   H9X 1589   4.661   6.264   5.618 -0.8166  3.3097 -2.7374
  139POPC   H9Y 1590   4.627   6.199   5.456  1.0128 -0.1607  0.0767
  139POPC  C310 1591   4.604   6.047   5.602  0.0454  0.2420  0.1214
  139POPC  H10X 1592   4.524   5.986   5.557 -1.6298  0.4685  2.5700
  139POPC  H10Y 1593   4.592   6.048   5.713  2.0007 -2.3729  0.4677
  139POPC  C311 1594   4.738   5.980   5.579  0.1323 -0.9168 -0.3142
  139POPC  H11X 1595   4.743   5.899   5.655 -1.8012 -1.1676 -0.4101
  139POPC  H11Y 1596   4.820   6.049   5.606 -2.2802  1.5833  1.0811
  139POPC  C312 1597   4.750   5.929   5.433  0.5335 -0.2214  0.4550
  139POPC  H12X 1598   4.727   6.012   5.363  1.9634 -1.5966 -1.7710
  139POPC  H12Y 1599   4.683   5.843   5.413 -1.1478  1.1887 -0.1766
  139POPC  C313 1600   4.892   5.888   5.398 -0.9089  0.6198  0.1902
  139POPC  H13X 1601   4.928   5.813   5.471  1.1845  1.8901  0.5529
  139POPC  H13Y 1602   4.952   5.982   5.405 -0.2854  0.1606  1.1609
  139POPC  C314 1603   4.911   5.821   5.259  0.1685 -0.4650  0.2920
  139POPC  H14X 1604   4.852   5.727   5.253 -0.5201  0.0402 -1.2411
  139POPC  H14Y 1605   5.016   5.796   5.231  0.0305  2.2533 -3.3266
  139POPC  C315 1606   4.869   5.911   5.138  0.0691  0.3175 -0.1070
  139POPC  H15X 1607   4.760   5.935   5.136 -0.3578 -1.4168 -2.7736
  139POPC  H15Y 1608   4.880   5.839   5.055  1.3547 -0.3160  0.5781
  139POPC  C316 1609   4.968   6.019   5.114 -0.0475 -0.2792 -0.1452
  139POPC  H16X 1610   4.964   6.104   5.186 -0.3887  0.0018 -0.4879
  139POPC  H16Y 1611   4.944   6.072   5.019  1.9334  0.0614 -0.5007
  139POPC  H16Z 1612   5.071   5.978   5.110 -0.3283 -1.1904  1.4584
  140POPC     N 1613   3.892   2.077   6.499 -0.0585 -0.0054 -0.7086
  140POPC   C12 1614   3.870   2.223   6.483  0.2352 -0.5297 -0.8792
  140POPC  H12A 1615   3.930   2.259   6.401 -1.8133 -3.0919 -3.7397
  140POPC  H12B 1616   3.922   2.273   6.564  0.4972 -1.2314 -0.6021
  140POPC   C13 1617   4.037   2.053   6.541  0.2361 -0.0225 -0.0577
  140POPC  H13A 1618   4.102   2.074   6.457 -1.8769  0.1661 -1.7379
  140POPC  H13B 1619   4.062   2.119   6.623  1.5164 -0.6817  0.0990
  140POPC  H13C 1620   4.050   1.947   6.554 -0.5119 -0.1087  0.0613
  140POPC   C14 1621   3.805   2.009   6.606  0.3576  0.2495 -0.9488
  140POPC  H14A 1622   3.801   2.062   6.699  0.9095 -1.1947 -0.0723
  140POPC  H14B 1623   3.701   2.024   6.582  0.3754  1.0698 -0.5430
  140POPC  H14C 1624   3.820   1.903   6.624  1.2628  0.2003 -1.8584
  140POPC   C15 1625   3.863   2.004   6.372  0.3375  0.2371 -0.2677
  140POPC  H15A 1626   3.939   2.030   6.299  1.0763 -1.3628 -0.1148
  140POPC  H15B 1627   3.764   2.004   6.330  0.4690  1.3538 -0.6184
  140POPC  H15C 1628   3.877   1.898   6.386  0.6171  0.2262 -0.5918
  140POPC   C11 1629   3.734   2.282   6.472  0.2860 -0.3027 -0.6987
  140POPC  H11A 1630   3.698   2.264   6.369 -1.0641 -2.0670  0.0218
  140POPC  H11B 1631   3.745   2.392   6.484 -1.7351 -0.0603 -0.7892
  140POPC     P 1632   3.553   2.320   6.647 -0.2358  0.0658 -0.3997
  140POPC   O13 1633   3.653   2.368   6.752 -0.4542  0.0660  0.2089
  140POPC   O14 1634   3.435   2.243   6.699  0.6365  0.4065  0.3193
  140POPC   O12 1635   3.629   2.226   6.552 -0.1492 -0.0628  0.2010
  140POPC   O11 1636   3.499   2.447   6.559 -0.0400 -1.4564  0.3165
  140POPC    C1 1637   3.419   2.433   6.449  0.3107  0.7370  0.9909
  140POPC    HA 1638   3.317   2.475   6.464 -1.0640 -1.5698 -0.9764
  140POPC    HB 1639   3.397   2.329   6.416  2.1565  0.0142  1.8940
  140POPC    C2 1640   3.487   2.491   6.319 -0.2405 -0.0617 -0.2423
  140POPC    HS 1641   3.560   2.420   6.275  2.1837  1.9148  0.3667
  140POPC   O21 1642   3.550   2.618   6.349 -0.3094 -0.4582 -0.3154
  140POPC   C21 1643   3.669   2.641   6.288  0.5045 -0.1362 -0.9067
  140POPC   O22 1644   3.719   2.567   6.209  0.2975 -0.7295  0.0870
  140POPC   C22 1645   3.726   2.772   6.342 -0.3593  0.2832  0.1405
  140POPC   H2R 1646   3.815   2.748   6.405 -0.8945  0.3189  0.9280
  140POPC   H2S 1647   3.644   2.823   6.397 -0.5109  1.9292 -1.5279
  140POPC    C3 1648   3.377   2.526   6.216 -0.1595  0.4722 -0.1991
  140POPC    HX 1649   3.300   2.594   6.259 -0.4083  0.1911 -0.1983
  140POPC    HY 1650   3.312   2.437   6.205 -1.1593  1.2366 -0.6075
  140POPC   O31 1651   3.438   2.585   6.095  0.9328  0.1580  0.1472
  140POPC   C31 1652   3.499   2.493   6.023 -0.2656 -0.1694  0.1561
  140POPC   O32 1653   3.487   2.371   6.048 -0.1691 -0.5683  0.1343
  140POPC   C32 1654   3.583   2.560   5.911  0.5699 -0.1110 -0.0056
  140POPC   H2X 1655   3.656   2.626   5.962  0.0073 -0.2465  0.9872
  140POPC   H2Y 1656   3.508   2.620   5.856  2.4876  2.0837 -0.3743
  140POPC   C23 1657   3.777   2.869   6.237  0.0035  0.1604 -0.3877
  140POPC   H3R 1658   3.866   2.824   6.189  0.8794 -0.7564  2.0116
  140POPC   H3S 1659   3.818   2.962   6.282 -0.5663 -0.9332  2.5428
  140POPC   C24 1660   3.676   2.915   6.122 -0.4006  0.7439  0.0520
  140POPC   H4R 1661   3.617   3.002   6.159  0.8613  1.2808  0.8425
  140POPC   H4S 1662   3.608   2.830   6.100 -0.5805  0.8170  0.3281
  140POPC   C25 1663   3.757   2.950   5.999  0.5696 -0.2278 -0.1709
  140POPC   H5R 1664   3.802   2.852   5.973  0.8571 -0.1034 -0.1446
  140POPC   H5S 1665   3.844   3.015   6.023  1.1541 -1.0670  0.0485
  140POPC   C26 1666   3.668   3.009   5.892  0.3501 -0.2150  0.1905
  140POPC   H6R 1667   3.595   3.084   5.931  0.4435  0.3198 -0.6526
  140POPC   H6S 1668   3.609   2.926   5.847 -2.6987  0.2463  2.9083
  140POPC   C27 1669   3.761   3.071   5.788 -0.3898  0.4831  0.1708
  140POPC   H7R 1670   3.834   2.993   5.760 -1.7923 -0.8012 -0.0145
  140POPC   H7S 1671   3.822   3.150   5.838 -0.2759  0.1919  0.4909
  140POPC   C28 1672   3.691   3.132   5.674  0.7267 -0.2347  0.3965
  140POPC   H8R 1673   3.640   3.221   5.716 -1.3883 -1.2326  0.0760
  140POPC   H8S 1674   3.612   3.060   5.644 -1.5190  1.1782  2.5181
  140POPC   C29 1675   3.776   3.161   5.560 -0.1056  0.6690 -0.1212
  140POPC   H91 1676   3.878   3.189   5.591  0.1867 -1.6365  1.2018
  140POPC  C210 1677   3.742   3.182   5.433 -0.1906  0.2036  0.3740
  140POPC  H101 1678   3.824   3.221   5.370  1.6375 -1.2403  1.7321
  140POPC  C211 1679   3.602   3.151   5.374 -0.3218 -1.0111 -0.4883
  140POPC  H11R 1680   3.510   3.189   5.425  0.4619 -0.0229  0.2282
  140POPC  H11S 1681   3.584   3.043   5.357 -1.4542 -0.6603 -1.7077
  140POPC  C212 1682   3.592   3.229   5.237 -0.1117 -0.6002 -0.5424
  140POPC  H12R 1683   3.628   3.334   5.227  0.4444 -0.7908 -0.5990
  140POPC  H12S 1684   3.483   3.240   5.220 -0.0539 -0.5099 -0.8615
  140POPC  C213 1685   3.672   3.156   5.131  0.3324  0.8690 -0.4339
  140POPC  H13R 1686   3.660   3.046   5.139 -0.0367  1.0336  1.8687
  140POPC  H13S 1687   3.776   3.190   5.144  0.0341  0.6486  3.5177
  140POPC  C214 1688   3.639   3.195   4.980 -0.0234 -0.0459 -0.1011
  140POPC  H14R 1689   3.530   3.175   4.976  0.0551 -1.5278  2.6258
  140POPC  H14S 1690   3.694   3.132   4.907 -2.1934 -1.1441 -0.8594
  140POPC  C215 1691   3.668   3.341   4.959 -0.1931 -0.7792  0.1407
  140POPC  H15R 1692   3.777   3.361   4.957 -0.4165  0.6032 -2.5606
  140POPC  H15S 1693   3.630   3.404   5.042 -0.4103 -0.9781  0.1948
  140POPC  C216 1694   3.593   3.391   4.830  0.0393  0.3297  0.9273
  140POPC  H16R 1695   3.612   3.499   4.812 -1.7648  0.6903  0.9897
  140POPC  H16S 1696   3.482   3.389   4.829 -0.1656  3.6014 -2.3064
  140POPC  C217 1697   3.634   3.316   4.699  0.4501  0.2479  0.1451
  140POPC  H17R 1698   3.613   3.207   4.698  3.3489 -0.4039  0.7013
  140POPC  H17S 1699   3.745   3.312   4.695  0.5199 -4.0411  1.3647
  140POPC  C218 1700   3.568   3.376   4.569  0.1501 -0.2049 -0.5487
  140POPC  H18R 1701   3.458   3.363   4.583  0.2094  2.0016  3.4292
  140POPC  H18S 1702   3.605   3.314   4.486  1.6725 -1.1684  0.7835
  140POPC  H18T 1703   3.597   3.479   4.541 -1.5685  0.6833  0.6787
  140POPC   C33 1704   3.655   2.456   5.815 -0.1130  0.8703  0.6027
  140POPC   H3X 1705   3.577   2.380   5.791  1.7090 -0.9927  0.2748
  140POPC   H3Y 1706   3.741   2.404   5.861 -0.0780  1.0042  0.6900
  140POPC   C34 1707   3.694   2.516   5.680 -0.0383 -0.2398 -0.0459
  140POPC   H4X 1708   3.778   2.587   5.697 -2.1234  2.4412 -0.2296
  140POPC   H4Y 1709   3.599   2.563   5.647 -1.8263 -1.5117  2.9158
  140POPC   C35 1710   3.731   2.416   5.564  0.0222 -0.6002  0.0990
  140POPC   H5X 1711   3.646   2.345   5.558  0.3231 -1.0338  0.7324
  140POPC   H5Y 1712   3.822   2.362   5.601 -0.8056 -1.0351  1.5890
  140POPC   C36 1713   3.750   2.473   5.421  0.4368  0.0917 -0.1500
  140POPC   H6X 1714   3.799   2.412   5.343  0.9608  1.3163 -0.8013
  140POPC   H6Y 1715   3.819   2.559   5.411  0.3404 -0.0451 -2.5830
  140POPC   C37 1716   3.613   2.518   5.354 -0.8758  0.2757 -0.4501
  140POPC   H7X 1717   3.562   2.582   5.429 -1.2529  1.0212 -1.3362
  140POPC   H7Y 1718   3.553   2.426   5.336 -0.6504  0.0325 -0.0028
  140POPC   C38 1719   3.627   2.587   5.218 -0.2357 -0.2271 -0.6922
  140POPC   H8X 1720   3.644   2.693   5.244 -1.0972 -0.3096  0.2690
  140POPC   H8Y 1721   3.526   2.583   5.171 -0.0382 -1.2246 -1.0591
  140POPC   C39 1722   3.738   2.534   5.129 -0.2512  0.3195  0.4101
  140POPC   H9X 1723   3.723   2.424   5.125 -2.1342  0.5718 -2.0529
  140POPC   H9Y 1724   3.838   2.545   5.175 -0.3505  1.5881  0.3493
  140POPC  C310 1725   3.752   2.590   4.983 -0.4572 -0.0550  0.5530
  140POPC  H10X 1726   3.856   2.559   4.959 -0.4691  0.7970 -0.7114
  140POPC  H10Y 1727   3.764   2.701   4.981  0.2296 -0.0706  2.3739
  140POPC  C311 1728   3.643   2.534   4.899  0.8338  0.0199  0.1417
  140POPC  H11X 1729   3.547   2.547   4.953  0.7441 -1.3498  0.3508
  140POPC  H11Y 1730   3.663   2.426   4.881 -1.5248 -0.3897 -0.2870
  140POPC  C312 1731   3.641   2.596   4.758 -0.0457  0.3720  0.0485
  140POPC  H12X 1732   3.654   2.705   4.776 -0.4021 -0.0170  3.0343
  140POPC  H12Y 1733   3.541   2.584   4.709  0.6453 -2.2584 -0.8823
  140POPC  C313 1734   3.754   2.559   4.663  0.3432 -0.1747 -0.8418
  140POPC  H13X 1735   3.747   2.448   4.660  1.5723 -0.3114  0.2722
  140POPC  H13Y 1736   3.854   2.588   4.702 -0.4689  0.4002  0.9376
  140POPC  C314 1737   3.721   2.615   4.523  0.5253  0.0025 -0.2486
  140POPC  H14X 1738   3.709   2.726   4.516 -0.6727 -0.0388  0.9362
  140POPC  H14Y 1739   3.619   2.581   4.495 -0.0445  2.5901 -1.6985
  140POPC  C315 1740   3.832   2.573   4.419  0.6672  0.7507  0.5176
  140POPC  H15X 1741   3.827   2.462   4.423 -0.9095  0.7195 -0.9356
  140POPC  H15Y 1742   3.926   2.604   4.468 -0.3672  1.2044  2.3161
  140POPC  C316 1743   3.824   2.631   4.284  0.1162 -0.1846 -0.2185
  140POPC  H16X 1744   3.816   2.741   4.295 -2.8116 -0.2753 -0.5679
  140POPC  H16Y 1745   3.739   2.598   4.220  0.3226 -0.6418 -0.2593
  140POPC  H16Z 1746   3.918   2.616   4.228  0.7693  0.6341  0.6241
  141POPC     N 1747   0.964   4.221   6.632  0.4857 -0.0314  0.8297
  141POPC   C12 1748   0.920   4.242   6.488  0.1334  0.5306 -0.2727
  141POPC  H12A 1749   0.812   4.251   6.482 -0.1114  0.1604  2.1803
  141POPC  H12B 1750   0.945   4.152   6.435  1.3445  0.4001  0.4972
  141POPC   C13 1751   0.913   4.332   6.727 -0.1499 -0.1691  0.7208
  141POPC  H13A 1752   0.805   4.334   6.725 -0.1453  1.4911  0.5065
  141POPC  H13B 1753   0.948   4.331   6.829  1.0120  2.0415  0.4123
  141POPC  H13C 1754   0.940   4.428   6.684 -0.3868 -0.3009  0.2669
  141POPC   C14 1755   0.890   4.110   6.700  1.1546 -0.7769 -0.5194
  141POPC  H14A 1756   0.785   4.129   6.685  1.4077 -1.2362 -3.5321
  141POPC  H14B 1757   0.914   4.014   6.658 -0.3901 -0.6812 -1.7253
  141POPC  H14C 1758   0.917   4.111   6.805  0.2509  1.2491 -0.2473
  141POPC   C15 1759   1.115   4.201   6.647 -0.5905 -0.4968  0.1543
  141POPC  H15A 1760   1.146   4.186   6.750  1.1745 -0.0605 -0.2786
  141POPC  H15B 1761   1.161   4.294   6.616 -0.7680 -0.6581 -0.6052
  141POPC  H15C 1762   1.153   4.115   6.595  0.5365 -0.0896  0.2705
  141POPC   C11 1763   0.983   4.363   6.419 -0.3093  0.2008 -0.2683
  141POPC  H11A 1764   0.966   4.334   6.313 -2.8197  2.8006 -0.6906
  141POPC  H11B 1765   1.093   4.361   6.434  0.0420 -1.5630 -2.4969
  141POPC     P 1766   0.765   4.509   6.391  0.4724 -0.2397 -0.2435
  141POPC   O13 1767   0.715   4.648   6.411  0.7131 -0.0596 -0.0939
  141POPC   O14 1768   0.678   4.401   6.444 -0.4896  0.0781 -0.1567
  141POPC   O12 1769   0.914   4.488   6.448 -0.3021  0.3078 -0.2098
  141POPC   O11 1770   0.779   4.486   6.233 -0.1694 -0.1726 -0.3801
  141POPC    C1 1771   0.658   4.447   6.166  1.1499 -0.3552 -0.3909
  141POPC    HA 1772   0.575   4.521   6.173  1.4587  0.0472 -0.8840
  141POPC    HB 1773   0.614   4.351   6.200  0.2261  0.5903  1.2398
  141POPC    C2 1774   0.688   4.426   6.012 -0.0646 -0.1062  0.9471
  141POPC    HS 1775   0.607   4.364   5.968  0.0500 -0.9977  1.9456
  141POPC   O21 1776   0.817   4.370   5.978  0.0559 -0.2305  0.2177
  141POPC   C21 1777   0.818   4.238   5.996  0.4086 -0.4372  0.8180
  141POPC   O22 1778   0.725   4.172   6.031 -0.7090  0.0707 -0.1419
  141POPC   C22 1779   0.960   4.185   5.962 -0.2224  0.5115 -0.5718
  141POPC   H2R 1780   0.961   4.158   5.854  0.6664 -1.1143 -0.1848
  141POPC   H2S 1781   0.964   4.087   6.015  2.8406  0.9582  0.2288
  141POPC    C3 1782   0.673   4.567   5.945  0.0920  0.1871 -0.4464
  141POPC    HX 1783   0.746   4.631   6.000 -0.6164  0.3456  0.3349
  141POPC    HY 1784   0.569   4.603   5.960 -0.4151 -1.1570 -0.6053
  141POPC   O31 1785   0.708   4.576   5.806  0.4870  0.7118 -0.5152
  141POPC   C31 1786   0.821   4.635   5.769 -0.6043  1.3477 -0.2079
  141POPC   O32 1787   0.912   4.680   5.836 -0.2040 -0.4733 -0.0382
  141POPC   C32 1788   0.841   4.599   5.620  0.1310 -0.0630  0.3477
  141POPC   H2X 1789   0.778   4.664   5.555  2.4055  1.0725 -0.8466
  141POPC   H2Y 1790   0.805   4.495   5.609 -2.2531  0.9001 -2.1470
  141POPC   C23 1791   1.075   4.278   6.006 -0.2331  0.5497 -0.5319
  141POPC   H3R 1792   1.165   4.231   6.050  0.8030  1.6081 -1.4160
  141POPC   H3S 1793   1.039   4.346   6.086 -0.5713  1.1439 -1.1673
  141POPC   C24 1794   1.125   4.360   5.889  0.1674  0.7112  0.3879
  141POPC   H4R 1795   1.037   4.411   5.843  0.3387 -0.0449 -0.8402
  141POPC   H4S 1796   1.153   4.274   5.825 -1.5775 -1.5995  2.5540
  141POPC   C25 1797   1.249   4.446   5.906 -0.4306 -0.2211 -0.0600
  141POPC   H5R 1798   1.322   4.366   5.930  0.5143  0.7478  0.4484
  141POPC   H5S 1799   1.233   4.509   5.997 -1.3918 -0.3560 -0.1278
  141POPC   C26 1800   1.306   4.511   5.779  0.1109 -0.3569  0.3124
  141POPC   H6R 1801   1.263   4.613   5.781 -2.2665 -1.2720 -0.6579
  141POPC   H6S 1802   1.266   4.459   5.689 -0.0211  1.4078 -0.6968
  141POPC   C27 1803   1.460   4.507   5.786  0.4572 -0.5694  0.0121
  141POPC   H7R 1804   1.492   4.548   5.884 -1.0748  2.2179 -0.5597
  141POPC   H7S 1805   1.491   4.577   5.706 -1.9826  1.3250  0.6091
  141POPC   C28 1806   1.528   4.368   5.757 -0.1817 -0.2233 -0.6232
  141POPC   H8R 1807   1.498   4.296   5.836  2.9789 -0.3760  0.5943
  141POPC   H8S 1808   1.637   4.376   5.777 -0.3978  2.0847 -0.1327
  141POPC   C29 1809   1.492   4.315   5.620  0.3425 -0.7012  0.4219
  141POPC   H91 1810   1.383   4.301   5.612 -0.0253  2.0400 -0.2933
  141POPC  C210 1811   1.577   4.303   5.517 -0.6561 -0.9326  0.3139
  141POPC  H101 1812   1.537   4.298   5.415  0.3682  0.3138 -0.1766
  141POPC  C211 1813   1.729   4.329   5.524  0.7763 -0.5820 -0.6482
  141POPC  H11R 1814   1.776   4.228   5.533 -1.2916 -1.5306  0.0717
  141POPC  H11S 1815   1.752   4.396   5.609 -0.3025 -1.3453  0.2602
  141POPC  C212 1816   1.799   4.380   5.391 -0.2728 -0.1412  0.0638
  141POPC  H12R 1817   1.903   4.398   5.426 -0.2211  2.2873 -1.1197
  141POPC  H12S 1818   1.759   4.475   5.349  0.7643  0.0391 -0.5910
  141POPC  C213 1819   1.802   4.278   5.277  0.7676  0.8692  0.0444
  141POPC  H13R 1820   1.707   4.282   5.219 -1.1056 -0.3307  2.8348
  141POPC  H13S 1821   1.811   4.177   5.322  0.1698  0.9303  0.3053
  141POPC  C214 1822   1.922   4.297   5.188 -0.3072  0.1910 -0.3214
  141POPC  H14R 1823   2.020   4.318   5.237 -0.7724 -0.0733  0.7277
  141POPC  H14S 1824   1.905   4.388   5.126 -0.5480  0.3813  0.0203
  141POPC  C215 1825   1.938   4.168   5.107  0.4475 -0.9431 -0.5046
  141POPC  H15R 1826   1.841   4.124   5.076 -0.0185  0.5924 -1.3035
  141POPC  H15S 1827   1.988   4.102   5.181 -1.9413  0.6971  2.8040
  141POPC  C216 1828   2.041   4.171   4.995 -0.1035 -0.4466  0.4809
  141POPC  H16R 1829   2.142   4.191   5.036  0.3134 -1.9690  0.2871
  141POPC  H16S 1830   2.019   4.250   4.921  3.0947 -2.0263 -2.4860
  141POPC  C217 1831   2.050   4.040   4.912  0.3533 -0.1720  0.1259
  141POPC  H17R 1832   1.950   4.020   4.869  0.0027 -4.2285  2.2967
  141POPC  H17S 1833   2.061   3.956   4.984 -2.0106  0.7294  1.6682
  141POPC  C218 1834   2.159   4.033   4.804  1.0606 -0.0906 -0.1332
  141POPC  H18R 1835   2.152   3.938   4.747  1.5334 -1.0897  1.4462
  141POPC  H18S 1836   2.257   4.023   4.854  1.1280  0.5552 -0.1203
  141POPC  H18T 1837   2.165   4.115   4.728  1.6233 -0.2156 -0.2259
  141POPC   C33 1838   0.984   4.613   5.578 -0.3228  0.8425  0.8198
  141POPC   H3X 1839   1.049   4.545   5.638  0.6050  0.1626 -0.8452
  141POPC   H3Y 1840   1.012   4.720   5.588  0.3951  0.8482 -0.8386
  141POPC   C34 1841   1.008   4.577   5.429 -0.3000 -0.0160 -0.4464
  141POPC   H4X 1842   0.953   4.657   5.375  1.6870  0.5102 -1.7994
  141POPC   H4Y 1843   0.963   4.477   5.407 -1.3514  0.3102  0.1674
  141POPC   C35 1844   1.156   4.577   5.400  0.1506 -0.6032 -0.6360
  141POPC   H5X 1845   1.197   4.482   5.438 -0.2951 -0.4944  0.1306
  141POPC   H5Y 1846   1.220   4.658   5.442  1.7410 -2.0260 -0.2435
  141POPC   C36 1847   1.187   4.578   5.247  0.9309  1.0096  0.1479
  141POPC   H6X 1848   1.136   4.666   5.203  1.8316  0.8290 -1.3228
  141POPC   H6Y 1849   1.141   4.489   5.199 -0.3167  1.6176  0.1836
  141POPC   C37 1850   1.331   4.584   5.204  0.1819  0.4475  0.1652
  141POPC   H7X 1851   1.386   4.493   5.237 -0.6682 -0.0806  0.1501
  141POPC   H7Y 1852   1.376   4.673   5.252  0.3550  0.0089  0.8304
  141POPC   C38 1853   1.352   4.586   5.048  0.3277 -0.1481 -0.1043
  141POPC   H8X 1854   1.287   4.664   5.004  0.9940  0.7545  0.4740
  141POPC   H8Y 1855   1.319   4.487   5.011  3.5213 -0.5078 -2.4945
  141POPC   C39 1856   1.496   4.579   4.998  0.5444  0.3974 -0.2848
  141POPC   H9X 1857   1.543   4.482   5.025 -0.2305  0.3642  0.9937
  141POPC   H9Y 1858   1.564   4.653   5.046  1.6321 -2.9409  3.9532
  141POPC  C310 1859   1.498   4.608   4.850 -0.9722  0.3383  0.1225
  141POPC  H10X 1860   1.456   4.708   4.830 -0.1351  0.4780 -1.0867
  141POPC  H10Y 1861   1.438   4.539   4.787 -1.7232  0.4889  0.6672
  141POPC  C311 1862   1.639   4.607   4.797 -0.5223  0.4878 -0.2995
  141POPC  H11X 1863   1.693   4.511   4.812 -1.4361  0.1521  1.0225
  141POPC  H11Y 1864   1.688   4.684   4.859 -1.0291  0.7000 -0.1592
  141POPC  C312 1865   1.645   4.659   4.652 -0.2370 -0.0201 -0.5506
  141POPC  H12X 1866   1.629   4.767   4.634 -2.4313 -0.6765 -3.3043
  141POPC  H12Y 1867   1.551   4.626   4.602 -1.0443  2.5298 -0.8459
  141POPC  C313 1868   1.764   4.607   4.569  0.5715  0.6038  0.4033
  141POPC  H13X 1869   1.733   4.639   4.467  0.1677  3.2422  1.2783
  141POPC  H13Y 1870   1.788   4.498   4.577  1.1608  0.5908 -1.0807
  141POPC  C314 1871   1.893   4.695   4.582  0.1191 -0.6697  0.1600
  141POPC  H14X 1872   1.935   4.693   4.684  1.5774  2.6846 -0.2632
  141POPC  H14Y 1873   1.858   4.796   4.554 -0.2822 -0.0457  2.7288
  141POPC  C315 1874   2.002   4.650   4.489 -0.5030  0.0466 -0.4176
  141POPC  H15X 1875   1.963   4.634   4.386  0.1503 -1.4032 -0.4583
  141POPC  H15Y 1876   2.043   4.550   4.510  3.2025  1.0652 -1.9487
  141POPC  C316 1877   2.121   4.752   4.494  0.7011 -0.2111  0.2882
  141POPC  H16X 1878   2.087   4.856   4.473  0.3886 -0.5215 -0.8061
  141POPC  H16Y 1879   2.199   4.726   4.418 -1.6702  0.2581 -2.4969
  141POPC  H16Z 1880   2.166   4.753   4.595 -1.5451  0.2724  1.3341
  142POPC     N 1881   1.916   0.596   6.279 -0.2879 -0.3105  0.2757
  142POPC   C12 1882   1.963   0.734   6.261  0.0455 -0.4511 -0.1944
  142POPC  H12A 1883   2.069   0.734   6.238  0.1176 -5.3367 -0.9722
  142POPC  H12B 1884   1.955   0.789   6.353  2.2212 -1.2078  0.5238
  142POPC   C13 1885   1.779   0.603   6.333 -0.8625 -0.0282  0.4817
  142POPC  H13A 1886   1.732   0.506   6.328  0.1283 -0.4405 -1.8066
  142POPC  H13B 1887   1.782   0.648   6.432  0.3213  0.6775  0.1441
  142POPC  H13C 1888   1.712   0.669   6.281  1.3119  2.7600  0.9590
  142POPC   C14 1889   1.920   0.514   6.154 -0.0593 -0.2878 -0.4334
  142POPC  H14A 1890   2.022   0.504   6.120  0.7561  0.4527  1.5933
  142POPC  H14B 1891   1.878   0.417   6.173 -1.8382  0.1559 -1.8993
  142POPC  H14C 1892   1.852   0.556   6.083 -0.1802 -1.0878 -0.7970
  142POPC   C15 1893   2.004   0.536   6.381 -0.1697 -0.1005  0.0422
  142POPC  H15A 1894   1.984   0.431   6.396  2.8123 -0.2626  5.3299
  142POPC  H15B 1895   1.993   0.594   6.471  2.7580 -1.0037  1.0951
  142POPC  H15C 1896   2.110   0.534   6.363  0.0697 -2.7424  1.2159
  142POPC   C11 1897   1.886   0.823   6.155  0.2398 -0.8689 -0.1404
  142POPC  H11A 1898   1.924   0.927   6.163 -0.7727 -0.3695 -1.4078
  142POPC  H11B 1899   1.778   0.818   6.178  0.1180 -0.2654 -0.5627
  142POPC     P 1900   2.029   0.815   5.943  0.3146 -0.0217 -0.4534
  142POPC   O13 1901   2.059   0.705   5.843 -0.3626  0.0370  0.3507
  142POPC   O14 1902   2.125   0.846   6.045 -0.4559 -0.4861 -0.1676
  142POPC   O12 1903   1.897   0.770   6.021  0.6535 -0.4630  0.4142
  142POPC   O11 1904   1.989   0.956   5.867 -0.3581 -0.3303  0.0144
  142POPC    C1 1905   1.857   1.017   5.855 -0.1321  0.6079  0.1798
  142POPC    HA 1906   1.849   1.122   5.891 -0.9558  0.4929  0.3489
  142POPC    HB 1907   1.783   0.966   5.919 -1.0373  2.8596  1.0321
  142POPC    C2 1908   1.820   1.011   5.709  0.8259 -0.7254 -0.3145
  142POPC    HS 1909   1.815   0.912   5.659 -1.5139  0.0726 -1.7997
  142POPC   O21 1910   1.899   1.105   5.636 -0.1785 -0.7067  0.4717
  142POPC   C21 1911   1.928   1.075   5.506 -0.6943 -0.2249  0.1993
  142POPC   O22 1912   1.904   0.968   5.459 -0.1168  0.4378  0.1136
  142POPC   C22 1913   1.989   1.201   5.437  0.1494 -0.2158  0.6120
  142POPC   H2R 1914   2.087   1.219   5.486  0.2204 -1.2482  0.8811
  142POPC   H2S 1915   1.929   1.294   5.443 -1.7175 -1.3045 -0.1748
  142POPC    C3 1916   1.670   1.062   5.704  0.4256 -0.1766  0.1858
  142POPC    HX 1917   1.681   1.162   5.752  1.4848 -0.2147  0.0319
  142POPC    HY 1918   1.600   1.005   5.769  1.2477  0.0461  1.3084
  142POPC   O31 1919   1.615   1.087   5.572  0.5265 -0.2804 -0.0918
  142POPC   C31 1920   1.622   1.216   5.528 -0.2656  0.2149  0.2598
  142POPC   O32 1921   1.658   1.315   5.589 -0.4866  0.0246  0.2307
  142POPC   C32 1922   1.593   1.222   5.377 -0.0207  0.3364  0.2121
  142POPC   H2X 1923   1.486   1.197   5.358 -0.2917  0.4488  1.5047
  142POPC   H2Y 1924   1.664   1.151   5.331  0.8000  2.3443 -1.8084
  142POPC   C23 1925   2.002   1.182   5.282 -0.6380 -0.2518  0.5977
  142POPC   H3R 1926   1.995   1.286   5.243  0.5845  0.2572  1.6577
  142POPC   H3S 1927   1.915   1.125   5.244 -0.1623 -0.7413  0.2314
  142POPC   C24 1928   2.131   1.114   5.242  0.4848  0.0143  0.2318
  142POPC   H4R 1929   2.143   1.022   5.304  0.3559  0.9814  1.7476
  142POPC   H4S 1930   2.212   1.177   5.284  1.5879 -1.5652  0.6034
  142POPC   C25 1931   2.152   1.095   5.090 -0.0005 -0.1896  0.2211
  142POPC   H5R 1932   2.060   1.047   5.050 -1.1060 -0.6762  3.1104
  142POPC   H5S 1933   2.235   1.022   5.095  1.8827  1.8082 -0.4024
  142POPC   C26 1934   2.205   1.219   5.016  0.4123  0.4060  0.1603
  142POPC   H6R 1935   2.309   1.232   5.053  0.8984 -1.2104 -0.5788
  142POPC   H6S 1936   2.138   1.300   5.054 -0.0319  0.4389 -0.6727
  142POPC   C27 1937   2.198   1.193   4.865 -0.0422 -0.0566 -0.5025
  142POPC   H7R 1938   2.093   1.163   4.844  0.1687 -1.3201  0.1259
  142POPC   H7S 1939   2.269   1.114   4.833  0.4748 -0.5189  1.6238
  142POPC   C28 1940   2.232   1.323   4.783  0.1694 -0.3910  0.2756
  142POPC   H8R 1941   2.323   1.363   4.831 -0.2910  0.9383  0.1001
  142POPC   H8S 1942   2.151   1.392   4.815 -0.0159 -0.0803 -0.8091
  142POPC   C29 1943   2.212   1.288   4.642 -0.4135 -0.0079  1.0484
  142POPC   H91 1944   2.258   1.194   4.608  0.8029  0.1506  2.1534
  142POPC  C210 1945   2.123   1.341   4.555 -0.0507  0.4495  0.3895
  142POPC  H101 1946   2.097   1.285   4.464  1.8273 -0.3129  0.2880
  142POPC  C211 1947   2.046   1.465   4.576  0.8349  0.1367  0.3512
  142POPC  H11R 1948   2.072   1.528   4.488 -1.8703  1.5330  0.4524
  142POPC  H11S 1949   2.088   1.524   4.660  1.7042 -2.1640  1.6340
  142POPC  C212 1950   1.887   1.463   4.571 -0.5792 -0.0068  0.4905
  142POPC  H12R 1951   1.851   1.565   4.548 -2.1166 -1.4605 -5.1155
  142POPC  H12S 1952   1.860   1.421   4.670  1.6139 -2.4241  0.1853
  142POPC  C213 1953   1.829   1.369   4.467 -0.3714  0.1408  0.1068
  142POPC  H13R 1954   1.871   1.268   4.490 -1.5842  0.0493  2.2129
  142POPC  H13S 1955   1.865   1.395   4.366  0.4120  0.0165  0.3477
  142POPC  C214 1956   1.674   1.363   4.466  0.0920  0.5453 -0.3033
  142POPC  H14R 1957   1.628   1.441   4.401 -0.8465 -2.0123 -2.8956
  142POPC  H14S 1958   1.647   1.377   4.573 -1.6228  0.6080 -0.7202
  142POPC  C215 1959   1.622   1.227   4.413 -0.1545  0.6497  0.5488
  142POPC  H15R 1960   1.511   1.228   4.403 -0.0203  0.0010 -1.4709
  142POPC  H15S 1961   1.651   1.142   4.478 -1.3215  0.7886  1.2719
  142POPC  C216 1962   1.675   1.195   4.276 -0.3296  0.7567  0.1990
  142POPC  H16R 1963   1.779   1.160   4.294 -0.4142 -0.0630 -0.8812
  142POPC  H16S 1964   1.674   1.278   4.202  2.0557 -0.9106 -1.8864
  142POPC  C217 1965   1.604   1.083   4.211  0.2865  0.1979  0.1042
  142POPC  H17R 1966   1.501   1.122   4.195  0.2515  0.6993  1.4190
  142POPC  H17S 1967   1.601   0.994   4.276 -1.5331 -1.1184 -1.6502
  142POPC  C218 1968   1.671   1.041   4.078 -0.1392 -0.6186 -0.4233
  142POPC  H18R 1969   1.782   1.029   4.077 -0.0260  0.3058  0.0212
  142POPC  H18S 1970   1.651   1.126   4.010 -0.2323 -0.5380 -0.2951
  142POPC  H18T 1971   1.635   0.948   4.029  1.2437 -1.9948  1.0600
  142POPC   C33 1972   1.618   1.364   5.324 -0.9563 -0.0309  0.8899
  142POPC   H3X 1973   1.718   1.404   5.353 -1.3552  1.0032  0.8860
  142POPC   H3Y 1974   1.545   1.441   5.357 -1.8818  0.3702 -1.8042
  142POPC   C34 1975   1.615   1.366   5.170  0.1186  0.2966  0.1295
  142POPC   H4X 1976   1.515   1.328   5.143 -0.3400  0.1279  1.9729
  142POPC   H4Y 1977   1.687   1.289   5.135 -0.6146  0.5130 -1.9843
  142POPC   C35 1978   1.639   1.499   5.109 -0.3591  0.3545  0.1429
  142POPC   H5X 1979   1.741   1.539   5.131  0.0329 -0.9581  0.8918
  142POPC   H5Y 1980   1.573   1.573   5.158  1.2464  0.6680  1.9825
  142POPC   C36 1981   1.629   1.484   4.955  0.2853 -0.4879 -0.0314
  142POPC   H6X 1982   1.527   1.461   4.919  0.2886 -0.4496 -0.0645
  142POPC   H6Y 1983   1.698   1.398   4.937  2.1466  0.3936  2.3071
  142POPC   C37 1984   1.672   1.605   4.873  0.0296 -0.1664 -0.1707
  142POPC   H7X 1985   1.688   1.562   4.772  1.8899  0.1974 -0.0739
  142POPC   H7Y 1986   1.765   1.658   4.904 -0.4667  1.0682 -0.6993
  142POPC   C38 1987   1.555   1.705   4.864  0.1943 -0.1125 -0.0065
  142POPC   H8X 1988   1.569   1.775   4.950 -0.5434 -1.0662  0.9233
  142POPC   H8Y 1989   1.460   1.648   4.874  1.6800 -2.5453  1.1488
  142POPC   C39 1990   1.564   1.798   4.740  0.0216 -0.5316 -0.2580
  142POPC   H9X 1991   1.470   1.857   4.749  0.0620 -0.2542 -1.4336
  142POPC   H9Y 1992   1.566   1.747   4.641 -2.0552 -0.5074 -0.3654
  142POPC  C310 1993   1.677   1.898   4.755 -0.1563 -0.5510 -0.2262
  142POPC  H10X 1994   1.770   1.839   4.769 -0.4670 -1.2362 -0.9614
  142POPC  H10Y 1995   1.663   1.953   4.850  0.8494  0.6378 -0.7341
  142POPC  C311 1996   1.688   1.990   4.628  0.1538  0.2439  0.0348
  142POPC  H11X 1997   1.682   1.917   4.545  2.1281  1.4025 -1.2196
  142POPC  H11Y 1998   1.792   2.029   4.629  0.6082 -0.9130 -0.6846
  142POPC  C312 1999   1.594   2.107   4.612  0.0400  0.0814 -0.3361
  142POPC  H12X 2000   1.491   2.067   4.595  0.3099 -0.7825  0.0238
  142POPC  H12Y 2001   1.619   2.161   4.518 -0.1904  0.5206 -0.1482
  142POPC  C313 2002   1.600   2.211   4.734  0.5212 -0.1873 -0.0307
  142POPC  H13X 2003   1.706   2.243   4.724  0.3171  0.1297 -1.2558
  142POPC  H13Y 2004   1.600   2.158   4.832 -0.6344 -1.3742 -0.6387
  142POPC  C314 2005   1.496   2.327   4.738 -0.5053  0.3370  0.9964
  142POPC  H14X 2006   1.394   2.290   4.762  0.0444 -0.9868  1.3633
  142POPC  H14Y 2007   1.482   2.358   4.632  1.4124  0.5951  0.7820
  142POPC  C315 2008   1.534   2.441   4.823 -0.0022 -0.6938 -0.8966
  142POPC  H15X 2009   1.635   2.481   4.799  0.2005 -0.9377 -0.4677
  142POPC  H15Y 2010   1.534   2.405   4.928 -1.5127  1.0831 -0.2387
  142POPC  C316 2011   1.409   2.536   4.828 -0.4137 -0.0992 -0.0601
  142POPC  H16X 2012   1.387   2.577   4.727 -0.9801  0.4524  0.2794
  142POPC  H16Y 2013   1.436   2.627   4.885  0.2575 -0.2862 -0.0797
  142POPC  H16Z 2014   1.313   2.488   4.856 -1.0021 -0.7753 -2.9106
  143POPC     N 2015   5.755   0.239   7.167 -0.4464 -0.2440  0.5554
  143POPC   C12 2016   5.707   0.143   7.061 -0.1979  0.1221 -0.0673
  143POPC  H12A 2017   5.600   0.131   7.055 -0.1503  0.4618 -2.3457
  143POPC  H12B 2018   5.734   0.045   7.096 -1.0868  0.2649  1.0885
  143POPC   C13 2019   5.772   0.176   7.295  0.4611  0.2596  0.5113
  143POPC  H13A 2020   5.783   0.255   7.368  0.7660  0.7638 -0.0750
  143POPC  H13B 2021   5.685   0.126   7.334 -0.6476  1.2390 -0.6584
  143POPC  H13C 2022   5.862   0.117   7.302  0.6268  0.3875 -0.4293
  143POPC   C14 2023   5.888   0.303   7.118  0.2514 -0.3845 -0.3093
  143POPC  H14A 2024   5.977   0.244   7.135  0.8027 -0.0244 -1.8149
  143POPC  H14B 2025   5.872   0.343   7.019  1.9513  2.2829  0.3907
  143POPC  H14C 2026   5.902   0.392   7.178  0.8830 -0.4632 -0.3342
  143POPC   C15 2027   5.652   0.349   7.188  0.2824  0.0234  0.1465
  143POPC  H15A 2028   5.639   0.402   7.096  1.4893  1.1642  0.6013
  143POPC  H15B 2029   5.673   0.427   7.261 -1.5214  1.6883 -1.0282
  143POPC  H15C 2030   5.558   0.300   7.211  0.6496 -1.3417 -1.1022
  143POPC   C11 2031   5.749   0.165   6.917 -0.0848 -0.3187 -0.2259
  143POPC  H11A 2032   5.694   0.098   6.848  0.1039 -0.7351  0.0250
  143POPC  H11B 2033   5.856   0.139   6.901 -0.1039 -0.0755 -0.7605
  143POPC     P 2034   5.585   0.354   6.829  0.1442  0.0226 -0.2499
  143POPC   O13 2035   5.569   0.496   6.864 -0.0206 -0.0467 -0.5930
  143POPC   O14 2036   5.482   0.263   6.875  0.9256  0.5785  0.3650
  143POPC   O12 2037   5.731   0.304   6.873  0.4884  0.9854  0.0474
  143POPC   O11 2038   5.585   0.342   6.673  0.2893  0.3046  0.0219
  143POPC    C1 2039   5.705   0.329   6.597  0.2159 -0.1818 -0.1770
  143POPC    HA 2040   5.741   0.226   6.621  0.7226 -0.3698 -1.6617
  143POPC    HB 2041   5.780   0.405   6.626  1.2027 -0.8139 -1.0259
  143POPC    C2 2042   5.679   0.331   6.446 -0.2297  0.2638  0.9569
  143POPC    HS 2043   5.635   0.430   6.424  2.3246  1.4329  0.6772
  143POPC   O21 2044   5.594   0.218   6.409 -0.0655  0.1778  0.0789
  143POPC   C21 2045   5.515   0.253   6.301 -0.7457 -0.9713 -0.6122
  143POPC   O22 2046   5.487   0.369   6.270 -0.4175  0.8221 -0.3205
  143POPC   C22 2047   5.460   0.134   6.232  0.0518  0.7858 -0.0032
  143POPC   H2R 2048   5.349   0.137   6.230  0.0056 -0.4498 -0.0751
  143POPC   H2S 2049   5.484   0.047   6.297  0.2617  0.9067  0.0835
  143POPC    C3 2050   5.815   0.325   6.366  0.2787 -0.5297  0.1903
  143POPC    HX 2051   5.851   0.229   6.407  1.3148  0.2833  1.2703
  143POPC    HY 2052   5.893   0.402   6.386 -0.6907  0.7342 -0.7480
  143POPC   O31 2053   5.793   0.317   6.223  0.4024  0.3485 -0.1783
  143POPC   C31 2054   5.796   0.435   6.160  0.5925  0.4125  1.2421
  143POPC   O32 2055   5.836   0.539   6.208  0.3753  0.6489 -0.4083
  143POPC   C32 2056   5.756   0.418   6.016 -0.1826  0.0417 -0.6913
  143POPC   H2X 2057   5.645   0.415   6.015 -0.2363  1.2759 -0.2985
  143POPC   H2Y 2058   5.798   0.321   5.980 -1.5942 -1.2619  0.9869
  143POPC   C23 2059   5.518   0.125   6.089 -0.7681  0.6234 -0.4933
  143POPC   H3R 2060   5.536   0.022   6.052  0.1386  0.7198 -0.3426
  143POPC   H3S 2061   5.623   0.162   6.088 -0.5595  0.1445  0.8794
  143POPC   C24 2062   5.433   0.211   5.989 -0.6102 -0.3034  0.4654
  143POPC   H4R 2063   5.426   0.319   6.016 -1.7476  0.4154 -2.2869
  143POPC   H4S 2064   5.328   0.179   5.977 -0.8283  0.5960 -0.1866
  143POPC   C25 2065   5.510   0.212   5.861 -0.3634  0.4015 -0.0836
  143POPC   H5R 2066   5.509   0.110   5.817  1.0098  0.3444 -0.0235
  143POPC   H5S 2067   5.616   0.241   5.876  0.1187 -1.3574  0.1592
  143POPC   C26 2068   5.444   0.297   5.758  0.0865  0.1216  0.1993
  143POPC   H6R 2069   5.432   0.403   5.791 -0.4845  0.3382 -0.6751
  143POPC   H6S 2070   5.343   0.251   5.753 -0.0502 -0.0522  3.0333
  143POPC   C27 2071   5.505   0.289   5.619 -0.4000  0.1546  0.6285
  143POPC   H7R 2072   5.499   0.182   5.588 -0.2107  0.7138 -1.4946
  143POPC   H7S 2073   5.613   0.316   5.622 -0.4852  0.5713  0.0229
  143POPC   C28 2074   5.438   0.374   5.516 -0.0609  0.1945  0.8188
  143POPC   H8R 2075   5.437   0.483   5.539 -3.8007  0.4634  0.1353
  143POPC   H8S 2076   5.329   0.354   5.505  0.2338 -0.4759 -1.1675
  143POPC   C29 2077   5.502   0.350   5.379 -0.7376  0.3480  0.1100
  143POPC   H91 2078   5.607   0.376   5.360 -0.7755 -1.0512 -2.4709
  143POPC  C210 2079   5.444   0.282   5.275  0.8751 -0.9285 -0.1498
  143POPC  H101 2080   5.503   0.289   5.182  0.5471  0.7898 -0.2473
  143POPC  C211 2081   5.308   0.207   5.272 -0.6043 -0.3208  1.1493
  143POPC  H11R 2082   5.284   0.172   5.375  0.9580 -0.6729  1.4198
  143POPC  H11S 2083   5.324   0.118   5.207 -0.7632 -0.9614  1.9734
  143POPC  C212 2084   5.191   0.274   5.187 -0.3814 -0.0707  0.2207
  143POPC  H12R 2085   5.164   0.370   5.236  2.3727  0.1063  1.5869
  143POPC  H12S 2086   5.112   0.197   5.181 -2.1301  1.7368 -1.7529
  143POPC  C213 2087   5.214   0.311   5.036  0.6192 -0.5785 -0.8580
  143POPC  H13R 2088   5.292   0.389   5.040  0.6993 -0.5417 -2.5617
  143POPC  H13S 2089   5.129   0.362   4.986  0.0238 -0.2189  0.4591
  143POPC  C214 2090   5.272   0.210   4.945  0.1290 -0.7204 -0.4862
  143POPC  H14R 2091   5.363   0.161   4.985  0.2487 -1.6881 -1.8473
  143POPC  H14S 2092   5.291   0.265   4.851 -0.8892  0.7595  0.1460
  143POPC  C215 2093   5.184   0.086   4.909  0.3203  0.9214 -0.6961
  143POPC  H15R 2094   5.141   0.046   5.003  1.0565  0.3233 -0.6024
  143POPC  H15S 2095   5.255   0.012   4.865  0.4819 -0.4184  1.6662
  143POPC  C216 2096   5.058   0.097   4.815  0.6029 -0.3952 -0.5133
  143POPC  H16R 2097   5.087   0.161   4.729 -0.6666 -0.9895 -1.4137
  143POPC  H16S 2098   4.976   0.133   4.880  0.2068 -1.0499 -0.6362
  143POPC  C217 2099   5.015   6.399   4.760 -0.6906  0.5055 -0.1051
  143POPC  H17R 2100   5.103   6.336   4.736 -1.0913 -0.4956  0.9799
  143POPC  H17S 2101   4.945   6.421   4.676 -0.4075 -0.4166 -0.5965
  143POPC  C218 2102   4.926   6.319   4.865 -0.3958 -0.6084 -0.6319
  143POPC  H18R 2103   4.916   6.216   4.825  0.3806 -0.6498 -0.7497
  143POPC  H18S 2104   4.827   6.369   4.856 -0.1246 -0.2618 -1.8885
  143POPC  H18T 2105   4.953   6.315   4.972 -1.9541 -5.7129 -0.1832
  143POPC   C33 2106   5.803   0.541   5.932 -1.2298 -0.1311 -0.3266
  143POPC   H3X 2107   5.896   0.585   5.974 -0.8455 -0.3000 -0.9945
  143POPC   H3Y 2108   5.737   0.631   5.938  0.9650  1.5773 -0.4149
  143POPC   C34 2109   5.824   0.509   5.783 -0.4216  0.2985  0.0400
  143POPC   H4X 2110   5.720   0.490   5.749 -0.5302 -1.5695  1.2595
  143POPC   H4Y 2111   5.884   0.417   5.765 -1.3692 -0.5191  0.9636
  143POPC   C35 2112   5.892   0.620   5.705 -0.6546 -0.7700 -0.2166
  143POPC   H5X 2113   5.999   0.619   5.735 -0.2516  2.2752 -1.2019
  143POPC   H5Y 2114   5.859   0.722   5.734  2.7273  0.8282 -1.4486
  143POPC   C36 2115   5.898   0.607   5.549 -0.0395 -0.3662 -0.0957
  143POPC   H6X 2116   5.923   0.509   5.504 -1.3481 -0.8945  0.2759
  143POPC   H6Y 2117   5.970   0.688   5.525  0.2151 -0.6110 -0.1578
  143POPC   C37 2118   5.760   0.648   5.492  0.3251 -0.4338  0.7696
  143POPC   H7X 2119   5.708   0.734   5.540 -0.5299  0.2693 -1.2743
  143POPC   H7Y 2120   5.688   0.564   5.499 -1.1603  0.8103  1.0550
  143POPC   C38 2121   5.776   0.683   5.345 -1.1123 -0.3766 -0.2562
  143POPC   H8X 2122   5.835   0.604   5.295 -0.7977 -0.6886  0.5893
  143POPC   H8Y 2123   5.835   0.777   5.337  3.0830 -2.6686  0.8459
  143POPC   C39 2124   5.645   0.720   5.279 -0.5890 -0.3418  0.2386
  143POPC   H9X 2125   5.601   0.809   5.329 -0.4547  1.4110 -2.5511
  143POPC   H9Y 2126   5.581   0.629   5.287  0.9248 -1.5501 -0.7958
  143POPC  C310 2127   5.662   0.762   5.133 -0.4803  0.0431  0.2363
  143POPC  H10X 2128   5.736   0.845   5.128 -2.2496  1.7784  1.4597
  143POPC  H10Y 2129   5.564   0.806   5.107 -1.3931 -2.4383 -0.7683
  143POPC  C311 2130   5.706   0.652   5.032 -0.7344  0.4767  0.1216
  143POPC  H11X 2131   5.630   0.572   5.018 -0.7780  0.8105 -1.7966
  143POPC  H11Y 2132   5.800   0.606   5.068 -1.5164 -1.8944 -0.7104
  143POPC  C312 2133   5.743   0.705   4.882 -0.2401 -0.2083 -0.2726
  143POPC  H12X 2134   5.825   0.780   4.891 -0.6901  0.0730  2.6535
  143POPC  H12Y 2135   5.648   0.743   4.840  0.7217  1.1148 -1.3495
  143POPC  C313 2136   5.785   0.578   4.804 -0.4970  0.1201  0.9681
  143POPC  H13X 2137   5.704   0.503   4.817 -1.6407 -0.2350 -5.2027
  143POPC  H13Y 2138   5.887   0.544   4.833 -0.1449  0.6943  0.4245
  143POPC  C314 2139   5.770   0.620   4.656 -0.1142  0.3096 -0.8494
  143POPC  H14X 2140   5.836   0.703   4.625 -0.1274  0.3294 -0.8253
  143POPC  H14Y 2141   5.666   0.659   4.646  0.4506  2.5469  1.0512
  143POPC  C315 2142   5.770   0.505   4.556 -0.0861  0.0422  0.0155
  143POPC  H15X 2143   5.706   0.420   4.588  2.0390 -2.5682 -2.2061
  143POPC  H15Y 2144   5.878   0.476   4.557  0.1499  0.8745  1.1529
  143POPC  C316 2145   5.750   0.544   4.410 -0.6224  0.0101 -0.1172
  143POPC  H16X 2146   5.789   0.472   4.335  1.0369  0.9849 -0.2385
  143POPC  H16Y 2147   5.797   0.643   4.394 -1.2538  0.2200 -0.7001
  143POPC  H16Z 2148   5.642   0.555   4.387 -0.8883 -2.9060 -0.7643
  144POPC     N 2149   3.581   4.892   7.310  0.6007  0.0564  0.1652
  144POPC   C12 2150   3.587   4.847   7.168 -0.2112  0.4485 -0.1649
  144POPC  H12A 2151   3.672   4.780   7.156  0.3939  1.3450 -1.0393
  144POPC  H12B 2152   3.619   4.932   7.109  1.0604 -0.6587 -1.1501
  144POPC   C13 2153   3.701   4.969   7.347 -0.0155 -0.2850 -0.0919
  144POPC  H13A 2154   3.715   5.053   7.281 -0.2737  0.9890  1.4247
  144POPC  H13B 2155   3.695   5.004   7.449 -2.2525 -2.9686  0.8084
  144POPC  H13C 2156   3.783   4.902   7.324 -1.2444 -2.2183  0.8955
  144POPC   C14 2157   3.460   4.992   7.314 -0.0369  0.3360  0.5688
  144POPC  H14A 2158   3.368   4.948   7.279  1.5316 -1.4556 -1.6713
  144POPC  H14B 2159   3.446   5.040   7.409 -1.6796  1.5375 -0.2373
  144POPC  H14C 2160   3.473   5.073   7.243  1.3567  0.3687  0.8409
  144POPC   C15 2161   3.560   4.784   7.408 -0.2781 -0.4643  0.9404
  144POPC  H15A 2162   3.475   4.723   7.382 -1.0838  0.6353  0.9195
  144POPC  H15B 2163   3.525   4.830   7.500 -0.7190  2.8351 -0.7230
  144POPC  H15C 2164   3.647   4.720   7.412 -1.2091 -2.0777 -1.8925
  144POPC   C11 2165   3.457   4.795   7.100 -0.2704 -0.5425 -1.0729
  144POPC  H11A 2166   3.467   4.785   6.990 -0.1768  0.0036 -1.1157
  144POPC  H11B 2167   3.379   4.874   7.108 -0.7873 -0.9725 -1.7243
  144POPC     P 2168   3.494   4.536   7.127 -0.1435  0.3306 -0.4867
  144POPC   O13 2169   3.400   4.430   7.170 -0.1703 -0.4278 -0.1116
  144POPC   O14 2170   3.624   4.542   7.201 -0.0992 -0.2413 -0.2771
  144POPC   O12 2171   3.412   4.672   7.141  0.0148 -0.0087 -1.3527
  144POPC   O11 2172   3.518   4.515   6.972  0.3691 -0.3068 -0.3454
  144POPC    C1 2173   3.405   4.481   6.890  0.1198  0.3709 -0.1692
  144POPC    HA 2174   3.315   4.544   6.904 -1.5251 -1.9922  0.6119
  144POPC    HB 2175   3.375   4.376   6.914 -2.2479  1.1878  0.7543
  144POPC    C2 2176   3.438   4.499   6.734 -0.7970  0.2225  0.1099
  144POPC    HS 2177   3.535   4.447   6.722 -0.0285  0.6200  3.6530
  144POPC   O21 2178   3.450   4.643   6.711  0.0105 -0.2925  0.0897
  144POPC   C21 2179   3.573   4.695   6.700 -0.1981  0.4941 -0.2777
  144POPC   O22 2180   3.677   4.634   6.712  0.0137 -0.3140  0.1464
  144POPC   C22 2181   3.567   4.840   6.662 -0.0758  0.4207  0.0427
  144POPC   H2R 2182   3.499   4.895   6.731  1.7721  1.7710  0.8750
  144POPC   H2S 2183   3.526   4.834   6.559 -1.4533 -1.0850  0.6329
  144POPC    C3 2184   3.337   4.437   6.636 -0.1082  0.3865 -0.3773
  144POPC    HX 2185   3.251   4.507   6.640  0.2349  0.7900  2.5874
  144POPC    HY 2186   3.311   4.342   6.688 -0.9986  0.0903 -1.3321
  144POPC   O31 2187   3.398   4.404   6.507  0.5781  0.0110  0.1348
  144POPC   C31 2188   3.402   4.501   6.415  0.7773  0.2429  0.0871
  144POPC   O32 2189   3.346   4.608   6.420  0.8561  0.2506  0.3597
  144POPC   C32 2190   3.483   4.442   6.297 -0.4309 -0.8405 -0.7445
  144POPC   H2X 2191   3.459   4.336   6.275  0.0960 -0.6085 -2.6607
  144POPC   H2Y 2192   3.585   4.428   6.340 -0.1479 -1.9978 -1.7327
  144POPC   C23 2193   3.712   4.892   6.644  0.2723 -0.0881 -0.0492
  144POPC   H3R 2194   3.772   4.855   6.730 -0.1421 -0.9564 -0.1228
  144POPC   H3S 2195   3.696   5.002   6.643  1.3117  0.0682 -0.8332
  144POPC   C24 2196   3.773   4.863   6.512  0.0431 -0.4623 -0.1665
  144POPC   H4R 2197   3.693   4.870   6.435 -1.6458 -0.0116  1.5316
  144POPC   H4S 2198   3.804   4.757   6.505  1.9160  0.0136  0.4469
  144POPC   C25 2199   3.904   4.945   6.478  0.5086  0.3337  0.9088
  144POPC   H5R 2200   3.980   4.943   6.559  3.0203  1.8661 -1.2352
  144POPC   H5S 2201   3.872   5.051   6.470  3.3964  1.1965 -1.0408
  144POPC   C26 2202   3.962   4.901   6.342 -0.3382  0.4574 -0.5508
  144POPC   H6R 2203   4.010   4.805   6.372 -3.0115 -0.7696  0.1096
  144POPC   H6S 2204   4.035   4.982   6.320 -2.1428  2.6576  1.0921
  144POPC   C27 2205   3.872   4.867   6.222 -0.0656 -0.2168  0.2566
  144POPC   H7R 2206   3.813   4.959   6.201  1.8329  1.2090  0.8653
  144POPC   H7S 2207   3.809   4.782   6.255  2.7128 -1.3102  3.3255
  144POPC   C28 2208   3.930   4.844   6.079  0.4586 -0.3748 -0.2437
  144POPC   H8R 2209   3.966   4.739   6.077 -1.2357 -1.0775  1.6966
  144POPC   H8S 2210   4.020   4.908   6.064  0.6862 -1.1019 -2.1616
  144POPC   C29 2211   3.833   4.854   5.967 -0.2039 -0.3579  0.0900
  144POPC   H91 2212   3.726   4.845   5.989 -0.1870 -0.6549  0.0607
  144POPC  C210 2213   3.877   4.878   5.841  0.2717  0.5420  0.1472
  144POPC  H101 2214   3.808   4.888   5.757  1.3165 -1.2840 -0.9980
  144POPC  C211 2215   4.020   4.894   5.793 -0.1876  0.0135  0.5784
  144POPC  H11R 2216   4.079   4.801   5.806  0.7409  0.7793  2.0554
  144POPC  H11S 2217   4.065   4.981   5.846  0.0435 -0.8450  1.8469
  144POPC  C212 2218   4.026   4.924   5.645 -0.2547  0.1117  0.2671
  144POPC  H12R 2219   4.128   4.964   5.625  0.5549 -3.0433 -2.9507
  144POPC  H12S 2220   3.959   5.009   5.619  1.5080  1.6347  0.4757
  144POPC  C213 2221   4.002   4.809   5.546  0.2129 -0.4862 -0.5399
  144POPC  H13R 2222   3.982   4.855   5.447  2.4214  2.5243  0.2642
  144POPC  H13S 2223   3.907   4.756   5.568  0.6305 -0.9276  0.2544
  144POPC  C214 2224   4.134   4.729   5.525 -0.4867 -0.2528 -0.2889
  144POPC  H14R 2225   4.172   4.701   5.625 -4.1017 -2.2063  0.7511
  144POPC  H14S 2226   4.211   4.798   5.486  2.5447 -2.8684  0.6672
  144POPC  C215 2227   4.106   4.625   5.415 -0.9141 -0.4688 -0.3909
  144POPC  H15R 2228   4.032   4.554   5.457 -1.6610 -0.5841 -1.8554
  144POPC  H15S 2229   4.200   4.567   5.400 -0.3251  0.3700 -0.0305
  144POPC  C216 2230   4.071   4.675   5.273 -0.2153 -0.2358 -0.0797
  144POPC  H16R 2231   4.133   4.766   5.258 -1.7410  0.9411  0.5130
  144POPC  H16S 2232   3.965   4.709   5.271 -0.5438 -1.1763  0.6345
  144POPC  C217 2233   4.095   4.567   5.160  0.1002  0.6093  0.2557
  144POPC  H17R 2234   4.048   4.479   5.207  0.2675  0.2159 -0.2990
  144POPC  H17S 2235   4.204   4.551   5.147 -0.0979  0.6307 -1.7671
  144POPC  C218 2236   4.036   4.604   5.027  0.4840  0.3410  0.4189
  144POPC  H18R 2237   4.065   4.538   4.942 -0.7823  0.5320 -0.1904
  144POPC  H18S 2238   4.084   4.699   4.997  0.7716  0.4945  1.3593
  144POPC  H18T 2239   3.925   4.615   5.026  0.4839  0.3946  0.9061
  144POPC   C33 2240   3.486   4.529   6.165  0.5309  0.0859 -0.0174
  144POPC   H3X 2241   3.495   4.634   6.198 -1.8807  0.3950 -0.1570
  144POPC   H3Y 2242   3.387   4.521   6.117  0.3494  3.7985 -0.5191
  144POPC   C34 2243   3.588   4.471   6.074  0.2652 -0.2620  0.7350
  144POPC   H4X 2244   3.563   4.364   6.058 -0.7230 -0.2459  1.9717
  144POPC   H4Y 2245   3.682   4.468   6.133 -0.2902  1.4969  1.7818
  144POPC   C35 2246   3.605   4.538   5.936 -0.2277 -0.0848 -0.3468
  144POPC   H5X 2247   3.662   4.631   5.956 -1.2759  0.6414 -0.6374
  144POPC   H5Y 2248   3.509   4.548   5.882 -0.7877 -0.5858  0.5366
  144POPC   C36 2249   3.714   4.466   5.861 -0.3617  0.2249 -0.0884
  144POPC   H6X 2250   3.682   4.360   5.852  0.5395 -0.0514 -0.1161
  144POPC   H6Y 2251   3.806   4.475   5.923  0.1980 -2.0676 -0.5084
  144POPC   C37 2252   3.728   4.542   5.729  0.3211 -0.4747 -0.0417
  144POPC   H7X 2253   3.832   4.536   5.689 -0.5145 -0.9851 -2.2214
  144POPC   H7Y 2254   3.706   4.651   5.741 -1.2477 -0.7290 -0.4459
  144POPC   C38 2255   3.635   4.492   5.624  0.0207 -0.2129 -0.1897
  144POPC   H8X 2256   3.541   4.547   5.646  0.2162 -0.3500  1.0715
  144POPC   H8Y 2257   3.603   4.386   5.626  2.4906 -1.1023 -1.9878
  144POPC   C39 2258   3.686   4.521   5.487  0.5027 -0.1086  0.6913
  144POPC   H9X 2259   3.769   4.451   5.460  0.0639 -0.6468  0.7230
  144POPC   H9Y 2260   3.737   4.619   5.479  0.7702 -0.3062 -0.1532
  144POPC  C310 2261   3.574   4.502   5.383 -0.2062 -0.4230 -0.2572
  144POPC  H10X 2262   3.485   4.566   5.404  0.1558 -0.6492  2.2653
  144POPC  H10Y 2263   3.550   4.394   5.373 -1.1287 -0.3298  0.7617
  144POPC  C311 2264   3.638   4.552   5.248 -0.5526  0.1682 -0.4849
  144POPC  H11X 2265   3.724   4.483   5.231 -1.0429 -0.9120  1.1884
  144POPC  H11Y 2266   3.681   4.651   5.272 -0.7995 -0.4569  3.0003
  144POPC  C312 2267   3.535   4.544   5.128  0.4949 -0.8367  0.3487
  144POPC  H12X 2268   3.468   4.631   5.145  0.8819 -0.5754  0.5313
  144POPC  H12Y 2269   3.477   4.449   5.136 -0.5315 -0.2266  0.2748
  144POPC  C313 2270   3.596   4.549   4.988  1.1102  0.3744  0.1963
  144POPC  H13X 2271   3.644   4.453   4.958  0.4753  0.1875 -0.2343
  144POPC  H13Y 2272   3.680   4.621   4.977  0.6157  0.8312 -0.8203
  144POPC  C314 2273   3.475   4.580   4.885 -0.0004  0.1545 -0.5119
  144POPC  H14X 2274   3.516   4.648   4.808 -0.0167  0.7450 -0.0091
  144POPC  H14Y 2275   3.412   4.648   4.947 -0.0970 -1.4643  1.2750
  144POPC  C315 2276   3.397   4.460   4.839  0.6293 -0.4465  0.2310
  144POPC  H15X 2277   3.298   4.496   4.803  0.2973 -0.1118  1.4007
  144POPC  H15Y 2278   3.376   4.396   4.927 -0.7460 -2.0895 -1.2201
  144POPC  C316 2279   3.464   4.370   4.741  0.1457 -1.0765  0.7077
  144POPC  H16X 2280   3.510   4.429   4.658  1.6707 -0.4686  1.9382
  144POPC  H16Y 2281   3.385   4.309   4.692  0.8793 -0.9523 -0.7059
  144POPC  H16Z 2282   3.547   4.309   4.783 -1.1611 -2.3440  1.5147
  145POPC     N 2283   5.590   1.876   6.848  0.1199  0.0011 -0.1709
  145POPC   C12 2284   5.477   1.978   6.849 -0.2226 -0.0171  0.0181
  145POPC  H12A 2285   5.405   1.954   6.926  0.0030  2.9012  1.2811
  145POPC  H12B 2286   5.430   1.983   6.752  0.1149  0.6074 -0.1213
  145POPC   C13 2287   5.665   1.881   6.977 -0.5883  0.5568 -0.0696
  145POPC  H13A 2288   5.692   1.982   7.003  2.6894 -0.1430 -0.4000
  145POPC  H13B 2289   5.594   1.841   7.049 -1.3030  2.0864  0.1180
  145POPC  H13C 2290   5.751   1.817   6.979 -0.1144  1.1825 -0.2113
  145POPC   C14 2291   5.537   1.736   6.824 -0.1313 -0.2110  0.0321
  145POPC  H14A 2292   5.456   1.728   6.753 -0.8517 -0.3849  0.8537
  145POPC  H14B 2293   5.613   1.667   6.791  0.0081  0.4743 -1.1508
  145POPC  H14C 2294   5.488   1.699   6.913  0.7416  2.3642  1.7148
  145POPC   C15 2295   5.684   1.901   6.741 -0.2578  0.4677  1.1054
  145POPC  H15A 2296   5.645   1.874   6.644  2.5628  0.4837 -0.1271
  145POPC  H15B 2297   5.767   1.834   6.758  0.0265  0.1616 -1.1430
  145POPC  H15C 2298   5.718   2.004   6.741  1.8803 -0.0559 -2.3597
  145POPC   C11 2299   5.513   2.131   6.882  0.3998  0.6449  0.5983
  145POPC  H11A 2300   5.568   2.134   6.978 -2.0247 -0.0838  2.0983
  145POPC  H11B 2301   5.413   2.175   6.904 -0.0629 -0.8259  1.6113
  145POPC     P 2302   5.515   2.230   6.637 -0.6173 -0.3372  0.2358
  145POPC   O13 2303   5.538   2.377   6.617 -0.0885  0.3576  0.7617
  145POPC   O14 2304   5.379   2.188   6.625  0.7881  0.1832 -0.6589
  145POPC   O12 2305   5.586   2.192   6.776  0.4291  0.6459 -0.3435
  145POPC   O11 2306   5.603   2.152   6.540 -0.2081  0.3209 -1.3490
  145POPC    C1 2307   5.714   2.188   6.468 -0.0461 -0.2462  1.0729
  145POPC    HA 2308   5.778   2.102   6.440  0.2665  0.4962 -0.6432
  145POPC    HB 2309   5.786   2.251   6.523  1.9961 -1.3976 -0.1834
  145POPC    C2 2310   5.683   2.267   6.338 -0.1308  0.3337 -0.3076
  145POPC    HS 2311   5.643   2.358   6.388  0.6054  0.1448  0.6721
  145POPC   O21 2312   5.582   2.190   6.272 -0.2378 -0.2202 -0.0295
  145POPC   C21 2313   5.484   2.262   6.214 -0.9780  0.3109 -0.4261
  145POPC   O22 2314   5.490   2.388   6.204 -0.2096 -0.1145 -0.3145
  145POPC   C22 2315   5.378   2.170   6.150  0.4557  0.4970 -0.6475
  145POPC   H2R 2316   5.416   2.071   6.186  0.2041  0.5052 -0.3591
  145POPC   H2S 2317   5.388   2.169   6.039 -1.6765  0.5969 -0.8796
  145POPC    C3 2318   5.811   2.286   6.251 -0.4013  0.7362 -0.3852
  145POPC    HX 2319   5.855   2.184   6.251  0.7526  1.1260  2.4361
  145POPC    HY 2320   5.884   2.347   6.308  1.4951  0.3963 -2.3134
  145POPC   O31 2321   5.773   2.331   6.120 -0.4816 -0.1559 -0.1491
  145POPC   C31 2322   5.810   2.456   6.092  0.3701  0.2217 -0.7904
  145POPC   O32 2323   5.860   2.531   6.175 -0.1844  0.2622 -0.3145
  145POPC   C32 2324   5.816   2.476   5.939 -0.4300 -0.4036  0.5274
  145POPC   H2X 2325   5.749   2.562   5.918 -0.3579 -0.9862 -2.6688
  145POPC   H2Y 2326   5.770   2.388   5.890 -0.5133  1.1435 -2.4023
  145POPC   C23 2327   5.249   2.210   6.209  0.7483  0.8291 -0.4399
  145POPC   H3R 2328   5.214   2.311   6.182  0.0587  0.1165 -2.4116
  145POPC   H3S 2329   5.264   2.201   6.319 -1.4469 -2.9385 -0.2390
  145POPC   C24 2330   5.141   2.109   6.164 -0.1773  0.9170  0.5540
  145POPC   H4R 2331   5.048   2.135   6.219  0.1934  0.6080  1.3468
  145POPC   H4S 2332   5.171   2.005   6.190 -0.5545  0.1822 -1.7687
  145POPC   C25 2333   5.112   2.117   6.015 -0.3052  0.7141  0.0518
  145POPC   H5R 2334   5.199   2.079   5.958 -1.2342  0.5913 -1.3203
  145POPC   H5S 2335   5.091   2.221   5.981  0.5222  1.5585  1.9323
  145POPC   C26 2336   4.985   2.033   5.983 -0.1366 -0.3077  0.1016
  145POPC   H6R 2337   4.910   2.061   6.059 -2.4881  0.9173 -2.5079
  145POPC   H6S 2338   4.990   1.923   5.994  0.4639 -0.0238  4.2420
  145POPC   C27 2339   4.912   2.068   5.857 -0.5429 -0.0832 -0.1350
  145POPC   H7R 2340   4.877   2.174   5.857 -2.6219 -0.7222  0.8488
  145POPC   H7S 2341   4.821   2.007   5.838 -0.5485  0.8034 -3.8443
  145POPC   C28 2342   5.012   2.052   5.735  0.1989  0.4799 -0.3697
  145POPC   H8R 2343   5.103   2.109   5.764 -0.3251  1.7879 -1.2053
  145POPC   H8S 2344   4.965   2.094   5.643  1.7099  0.3756 -1.2193
  145POPC   C29 2345   5.047   1.912   5.708 -0.6935 -0.0243  0.1876
  145POPC   H91 2346   5.121   1.879   5.782 -1.2170  1.2331  1.3238
  145POPC  C210 2347   5.011   1.827   5.611  0.1766  0.4790 -0.7243
  145POPC  H101 2348   5.073   1.736   5.613 -0.3570  0.1080  1.8631
  145POPC  C211 2349   4.916   1.840   5.494 -0.1244 -0.2716 -0.3181
  145POPC  H11R 2350   4.889   1.943   5.462 -0.9266 -0.8609 -1.5715
  145POPC  H11S 2351   4.824   1.791   5.531 -0.6907  1.2825  0.4403
  145POPC  C212 2352   4.962   1.752   5.374 -0.8942 -0.0405 -0.6366
  145POPC  H12R 2353   4.963   1.647   5.410  0.6141  0.9479  2.5995
  145POPC  H12S 2354   5.064   1.778   5.339 -0.1288 -0.1906  1.3108
  145POPC  C213 2355   4.867   1.774   5.254  0.7731 -0.3923 -0.5908
  145POPC  H13R 2356   4.863   1.883   5.230  1.2753 -0.5684 -1.4906
  145POPC  H13S 2357   4.767   1.736   5.282  0.1332  0.2847 -1.8755
  145POPC  C214 2358   4.921   1.693   5.135  0.2527 -0.1400 -0.2074
  145POPC  H14R 2359   4.875   1.592   5.145 -3.7970  1.4163 -0.9908
  145POPC  H14S 2360   5.031   1.697   5.145  0.2506  1.2492 -0.5045
  145POPC  C215 2361   4.887   1.743   4.993 -0.0516 -0.0901  0.1825
  145POPC  H15R 2362   4.913   1.664   4.919  0.6065 -0.6689  1.0183
  145POPC  H15S 2363   4.937   1.835   4.955  1.2120 -1.1486 -0.8265
  145POPC  C216 2364   4.735   1.748   4.977 -0.0188  0.5176 -0.1999
  145POPC  H16R 2365   4.707   1.817   5.060  0.4576 -0.2091  0.5741
  145POPC  H16S 2366   4.695   1.646   4.996  3.0289 -0.8044 -0.4454
  145POPC  C217 2367   4.671   1.794   4.845 -0.2584 -0.3784 -0.3031
  145POPC  H17R 2368   4.567   1.758   4.827 -0.7674  0.6305  0.4762
  145POPC  H17S 2369   4.738   1.753   4.767 -0.2293 -0.8521 -0.0297
  145POPC  C218 2370   4.675   1.947   4.830  0.1135  0.3018 -0.6802
  145POPC  H18R 2371   4.634   1.989   4.924  1.1998 -1.5508  0.6879
  145POPC  H18S 2372   4.629   1.993   4.740 -0.1753 -0.9191 -1.1750
  145POPC  H18T 2373   4.785   1.965   4.831  0.3792 -1.1029  0.9537
  145POPC   C33 2374   5.955   2.506   5.889  1.1617 -0.1952  0.2349
  145POPC   H3X 2375   6.020   2.432   5.941 -0.5011 -0.4363  2.0786
  145POPC   H3Y 2376   5.991   2.609   5.912 -3.2948  1.8266 -0.7686
  145POPC   C34 2377   5.962   2.483   5.736 -0.4947 -0.6962 -0.6141
  145POPC   H4X 2378   5.917   2.382   5.728 -2.1681 -0.2168  1.6987
  145POPC   H4Y 2379   6.069   2.480   5.706 -0.0914 -0.6253  0.7567
  145POPC   C35 2380   5.902   2.594   5.654  0.3957  0.1139  0.4625
  145POPC   H5X 2381   5.806   2.628   5.699 -0.6949 -0.3911 -1.3651
  145POPC   H5Y 2382   5.874   2.556   5.553  1.8070  2.0867 -0.7470
  145POPC   C36 2383   5.993   2.713   5.638 -0.1300  0.3467  0.0699
  145POPC   H6X 2384   6.047   2.735   5.732  0.0627 -0.1392  0.0786
  145POPC   H6Y 2385   5.927   2.798   5.609 -0.1035 -0.2269 -1.8030
  145POPC   C37 2386   6.104   2.684   5.531  0.4997  0.5500 -0.4157
  145POPC   H7X 2387   6.156   2.586   5.537  1.1284  0.9350  0.6077
  145POPC   H7Y 2388   6.181   2.762   5.551  0.3296  0.1363  2.1163
  145POPC   C38 2389   6.051   2.699   5.397 -0.5617 -0.4422 -0.0426
  145POPC   H8X 2390   5.968   2.773   5.397 -0.4096 -0.0685 -3.4546
  145POPC   H8Y 2391   6.009   2.598   5.381  2.1263 -1.5641 -0.7097
  145POPC   C39 2392   6.145   2.724   5.279 -0.3234 -0.1218  0.7359
  145POPC   H9X 2393   6.206   2.632   5.268  0.8737  0.8242 -0.8874
  145POPC   H9Y 2394   6.218   2.807   5.292  0.0303 -0.5325  1.3950
  145POPC  C310 2395   6.073   2.741   5.151 -0.3756 -0.0427 -0.3160
  145POPC  H10X 2396   5.989   2.812   5.166  0.9466  1.6022 -0.4665
  145POPC  H10Y 2397   6.030   2.643   5.119  0.0117  0.0776 -1.2570
  145POPC  C311 2398   6.160   2.798   5.038 -0.7235  0.1725 -0.2337
  145POPC  H11X 2399   6.256   2.743   5.043  0.5433  2.0953 -1.9729
  145POPC  H11Y 2400   6.197   2.902   5.053 -0.5968  0.1344 -0.2770
  145POPC  C312 2401   6.093   2.790   4.905  0.4260  0.2020  0.7254
  145POPC  H12X 2402   5.995   2.843   4.908 -0.4554 -1.3191  0.1539
  145POPC  H12Y 2403   6.069   2.688   4.868 -1.6572  0.7265  0.5190
  145POPC  C313 2404   6.181   2.863   4.796  0.1065 -0.1976 -0.6969
  145POPC  H13X 2405   6.283   2.818   4.789  0.5636  0.7894 -0.5635
  145POPC  H13Y 2406   6.190   2.961   4.847  0.3555 -1.1609  1.1783
  145POPC  C314 2407   6.125   2.881   4.658  0.6047  0.1242  0.4423
  145POPC  H14X 2408   6.179   2.962   4.604  2.2158 -1.6787 -0.7937
  145POPC  H14Y 2409   6.017   2.907   4.666  0.6543  0.5125 -0.0804
  145POPC  C315 2410   6.136   2.761   4.561 -0.0519 -0.1052  0.6017
  145POPC  H15X 2411   6.130   2.665   4.616  1.0830 -0.4866  0.0762
  145POPC  H15Y 2412   6.238   2.759   4.519 -0.3323 -2.3485 -0.0822
  145POPC  C316 2413   6.032   2.770   4.452  0.3835 -0.1329  0.6247
  145POPC  H16X 2414   6.056   2.859   4.390  1.1090 -1.7050 -1.4536
  145POPC  H16Y 2415   5.931   2.784   4.496 -1.4535 -0.1839 -3.1787
  145POPC  H16Z 2416   6.031   2.679   4.389  1.5323  1.2116 -1.4748
  146POPC     N 2417   2.323   2.692   6.934 -0.2942  0.1531 -0.4390
  146POPC   C12 2418   2.308   2.815   6.843  0.3459  0.0027  0.0479
  146POPC  H12A 2419   2.269   2.895   6.904 -1.4777 -0.2285 -0.7536
  146POPC  H12B 2420   2.232   2.791   6.771  0.4993 -2.6579  0.6667
  146POPC   C13 2421   2.417   2.712   7.053  0.1841  0.5321  1.0236
  146POPC  H13A 2422   2.441   2.621   7.104  1.6436  0.8284  0.8937
  146POPC  H13B 2423   2.507   2.751   7.008 -0.1209 -0.4644 -0.5186
  146POPC  H13C 2424   2.375   2.782   7.124  1.9094  0.8703  1.7673
  146POPC   C14 2425   2.192   2.654   6.981 -0.8447  0.1841 -1.3292
  146POPC  H14A 2426   2.142   2.597   6.904 -1.2460 -1.3610  0.0238
  146POPC  H14B 2427   2.200   2.597   7.073 -0.4934  1.4362 -0.5603
  146POPC  H14C 2428   2.131   2.740   7.003  0.0570  0.7164 -0.8697
  146POPC   C15 2429   2.379   2.577   6.855 -0.5433 -0.7156  0.4116
  146POPC  H15A 2430   2.470   2.607   6.805 -0.0364 -2.7407  0.0402
  146POPC  H15B 2431   2.316   2.548   6.772 -0.1700 -1.2215  0.2978
  146POPC  H15C 2432   2.400   2.491   6.917  0.8777 -0.0330  0.9054
  146POPC   C11 2433   2.421   2.871   6.767  0.0298 -0.8120  0.4859
  146POPC  H11A 2434   2.383   2.957   6.707  0.2828 -2.7272 -2.6022
  146POPC  H11B 2435   2.452   2.796   6.692  0.3754 -1.5187  1.3227
  146POPC     P 2436   2.674   2.862   6.832 -0.1695 -0.2312  0.2728
  146POPC   O13 2437   2.673   2.714   6.829  0.5063 -0.1299  0.5332
  146POPC   O14 2438   2.750   2.921   6.943 -0.0456  0.1485 -0.0795
  146POPC   O12 2439   2.532   2.919   6.846  0.4886 -0.0639  0.4119
  146POPC   O11 2440   2.731   2.923   6.694  0.4470 -0.7028 -0.0906
  146POPC    C1 2441   2.762   3.062   6.684  0.0252  0.1097 -0.4116
  146POPC    HA 2442   2.856   3.072   6.743  0.2958 -0.5568 -0.7233
  146POPC    HB 2443   2.693   3.130   6.738 -0.5545 -2.7613  2.8102
  146POPC    C2 2444   2.777   3.111   6.533  0.1630 -0.5003 -0.2612
  146POPC    HS 2445   2.804   3.218   6.517  0.6568 -0.8459 -1.8954
  146POPC   O21 2446   2.658   3.077   6.462  0.0698 -0.2433  0.6463
  146POPC   C21 2447   2.558   3.166   6.498  0.4227  0.3873 -0.0618
  146POPC   O22 2448   2.569   3.263   6.568  0.3935 -0.6804  0.4434
  146POPC   C22 2449   2.431   3.118   6.436 -0.3205  0.1272 -0.1700
  146POPC   H2R 2450   2.350   3.135   6.510  1.2382  0.0367  1.6486
  146POPC   H2S 2451   2.433   3.012   6.405 -1.4921  0.1818 -0.4741
  146POPC    C3 2452   2.904   3.032   6.479  0.9463  0.0162  0.9926
  146POPC    HX 2453   2.892   2.922   6.494  0.3381 -0.1518 -0.5711
  146POPC    HY 2454   2.993   3.067   6.537  0.1639 -0.7725  2.7285
  146POPC   O31 2455   2.923   3.060   6.341  1.0483  0.0453 -0.2117
  146POPC   C31 2456   2.877   2.972   6.247  0.1708 -0.2307  0.4709
  146POPC   O32 2457   2.842   2.857   6.264 -0.5153 -0.2990 -0.0094
  146POPC   C32 2458   2.870   3.049   6.111 -0.6215 -0.4032  0.6048
  146POPC   H2X 2459   2.958   3.114   6.092 -1.2314 -0.4580 -3.1320
  146POPC   H2Y 2460   2.780   3.113   6.126 -0.5142 -0.1674  0.2623
  146POPC   C23 2461   2.384   3.212   6.317 -0.1171 -0.3079  0.1787
  146POPC   H3R 2462   2.389   3.315   6.359  1.7509 -1.2345  2.4738
  146POPC   H3S 2463   2.281   3.184   6.286  0.4126 -2.8399  0.4359
  146POPC   C24 2464   2.481   3.190   6.196 -0.3556  0.0401  0.0106
  146POPC   H4R 2465   2.466   3.090   6.151  0.5987  0.7587 -2.0381
  146POPC   H4S 2466   2.582   3.218   6.233 -0.4598 -0.6788  0.8819
  146POPC   C25 2467   2.445   3.292   6.081  0.6848  0.6432  0.0639
  146POPC   H5R 2468   2.408   3.389   6.121  0.2759  0.9330 -0.9960
  146POPC   H5S 2469   2.366   3.239   6.024  0.3228  1.1142  0.1190
  146POPC   C26 2470   2.559   3.303   5.981  0.0764  0.0387 -0.1466
  146POPC   H6R 2471   2.581   3.205   5.933 -0.5689  0.9486 -2.4401
  146POPC   H6S 2472   2.653   3.347   6.021  0.5682  0.5376 -1.7529
  146POPC   C27 2473   2.530   3.391   5.861  0.1396 -0.1677 -0.7883
  146POPC   H7R 2474   2.545   3.499   5.883  0.2470  0.3986 -3.2947
  146POPC   H7S 2475   2.423   3.378   5.831 -0.8455  0.5948  2.0649
  146POPC   C28 2476   2.608   3.351   5.733 -0.1890  0.5305  0.0720
  146POPC   H8R 2477   2.563   3.396   5.642  2.0531 -0.4932 -1.6352
  146POPC   H8S 2478   2.616   3.241   5.721  2.6580  0.8123 -1.4936
  146POPC   C29 2479   2.743   3.418   5.739  0.1154  0.7291  0.2697
  146POPC   H91 2480   2.788   3.415   5.839 -2.6479 -0.9161  1.5801
  146POPC  C210 2481   2.802   3.489   5.649 -0.1447  1.0152 -0.3934
  146POPC  H101 2482   2.893   3.540   5.684  0.5051 -1.1150  1.2514
  146POPC  C211 2483   2.745   3.514   5.507  0.1976 -0.2079 -0.7571
  146POPC  H11R 2484   2.815   3.574   5.446  0.4290  0.3080 -0.0020
  146POPC  H11S 2485   2.648   3.568   5.501  0.6598  0.6040 -1.1058
  146POPC  C212 2486   2.724   3.391   5.419 -0.2499  0.8981 -0.0898
  146POPC  H12R 2487   2.652   3.317   5.460 -0.5823  0.6552 -1.0714
  146POPC  H12S 2488   2.815   3.330   5.405 -1.0889 -0.0996 -1.4680
  146POPC  C213 2489   2.660   3.416   5.280 -0.9181 -0.5118 -0.1946
  146POPC  H13R 2490   2.728   3.482   5.222 -0.6382 -0.0574  0.6370
  146POPC  H13S 2491   2.560   3.464   5.280 -2.0791 -2.7764  0.2411
  146POPC  C214 2492   2.649   3.283   5.197 -0.0498 -0.0817 -0.3693
  146POPC  H14R 2493   2.600   3.308   5.100 -0.5346  0.7507  0.0857
  146POPC  H14S 2494   2.584   3.211   5.251 -1.4133  0.1542 -1.6303
  146POPC  C215 2495   2.780   3.211   5.155  0.4452 -0.6595 -0.2158
  146POPC  H15R 2496   2.767   3.129   5.081  3.2355 -2.1360  0.7965
  146POPC  H15S 2497   2.834   3.166   5.241  0.1603 -1.7059 -0.5675
  146POPC  C216 2498   2.891   3.296   5.087  0.0743 -0.5735 -0.4673
  146POPC  H16R 2499   2.938   3.358   5.166 -0.1733  0.7329 -1.3120
  146POPC  H16S 2500   2.858   3.373   5.014  0.4015 -0.1344 -0.1520
  146POPC  C217 2501   2.988   3.217   4.998  0.8503 -0.2653  0.4476
  146POPC  H17R 2502   2.949   3.189   4.898  1.7003 -0.2545  0.1039
  146POPC  H17S 2503   3.016   3.123   5.050  1.9194 -0.5064 -0.5231
  146POPC  C218 2504   3.112   3.293   4.972 -0.4441 -0.0491 -0.4193
  146POPC  H18R 2505   3.142   3.368   5.049  1.1276 -0.0742 -0.9715
  146POPC  H18S 2506   3.088   3.366   4.892  0.0951  1.8874  1.1034
  146POPC  H18T 2507   3.199   3.230   4.943  0.2159  0.0160  1.2588
  146POPC   C33 2508   2.835   2.955   5.988 -0.3103 -0.0412 -0.1406
  146POPC   H3X 2509   2.741   2.898   6.005 -2.3045  2.2399 -2.6850
  146POPC   H3Y 2510   2.925   2.890   5.980 -0.3314  0.0808 -1.6745
  146POPC   C34 2511   2.828   3.037   5.853 -0.8258 -0.5827 -0.7629
  146POPC   H4X 2512   2.925   3.091   5.846 -2.0813  1.9395  0.2982
  146POPC   H4Y 2513   2.743   3.107   5.862 -0.5283 -0.1849 -1.0062
  146POPC   C35 2514   2.818   2.952   5.726 -0.2394  0.8238 -0.6677
  146POPC   H5X 2515   2.727   2.888   5.724  1.4245 -1.7960  0.9500
  146POPC   H5Y 2516   2.904   2.883   5.714  0.1268  0.9571  0.9419
  146POPC   C36 2517   2.825   3.033   5.597 -0.1722 -0.7481  0.1634
  146POPC   H6X 2518   2.908   3.106   5.607 -0.9544  0.0406  1.1701
  146POPC   H6Y 2519   2.745   3.108   5.580  3.4567  3.2862 -0.9466
  146POPC   C37 2520   2.854   2.952   5.468  0.1240 -0.7018  0.2559
  146POPC   H7X 2521   2.921   2.871   5.504 -1.2113 -1.2758  1.5642
  146POPC   H7Y 2522   2.907   3.023   5.401  0.0214 -1.0456 -0.1961
  146POPC   C38 2523   2.720   2.897   5.399 -0.4325  0.1361 -0.4265
  146POPC   H8X 2524   2.657   2.975   5.350 -1.9741 -0.4460  0.5674
  146POPC   H8Y 2525   2.661   2.848   5.479 -0.0946 -0.2721 -0.4238
  146POPC   C39 2526   2.757   2.788   5.304 -0.4336 -0.1861  0.8865
  146POPC   H9X 2527   2.665   2.729   5.279 -1.0048  0.4989  1.3366
  146POPC   H9Y 2528   2.828   2.713   5.345  2.6902  1.6330 -0.8381
  146POPC  C310 2529   2.806   2.822   5.162 -1.0428 -0.5141  0.1833
  146POPC  H10X 2530   2.892   2.891   5.167 -2.2870  1.0297  2.6541
  146POPC  H10Y 2531   2.735   2.883   5.103  1.2316 -1.2081 -3.5616
  146POPC  C311 2532   2.840   2.698   5.081 -0.0153  0.4744  0.6717
  146POPC  H11X 2533   2.898   2.617   5.129  1.7158 -1.8237 -4.5154
  146POPC  H11Y 2534   2.903   2.737   4.998 -1.6502 -0.3372 -1.0216
  146POPC  C312 2535   2.723   2.628   5.007  1.1357  0.2747  0.2228
  146POPC  H12X 2536   2.656   2.702   4.958 -0.5941  0.3926  2.5822
  146POPC  H12Y 2537   2.662   2.560   5.070  1.5966 -2.0984 -1.7416
  146POPC  C313 2538   2.762   2.535   4.891 -0.2569  0.1933 -0.4504
  146POPC  H13X 2539   2.818   2.584   4.809  0.3098 -0.2381 -0.3241
  146POPC  H13Y 2540   2.668   2.509   4.836 -0.4152  3.0328 -1.6836
  146POPC  C314 2541   2.829   2.410   4.944  0.7261  0.3205  0.6874
  146POPC  H14X 2542   2.759   2.372   5.022  1.0824  2.9417  2.4338
  146POPC  H14Y 2543   2.928   2.432   4.990  0.7155 -0.5361  1.1427
  146POPC  C315 2544   2.827   2.298   4.835  0.8342 -0.2274 -0.2240
  146POPC  H15X 2545   2.898   2.330   4.756  1.9906  0.1169  0.9110
  146POPC  H15Y 2546   2.725   2.287   4.792  0.1898  0.1670  1.1330
  146POPC  C316 2547   2.865   2.160   4.892 -0.0050  0.5156  0.0951
  146POPC  H16X 2548   2.966   2.169   4.939 -0.1689  0.0276  0.5519
  146POPC  H16Y 2549   2.871   2.084   4.811  1.0889 -0.0434  0.6718
  146POPC  H16Z 2550   2.806   2.127   4.980  0.0807 -0.6167 -0.2575
  147POPC     N 2551   1.315   2.818   7.337  0.5360 -0.0192 -0.4571
  147POPC   C12 2552   1.406   2.847   7.219 -0.0703  0.3728 -0.1963
  147POPC  H12A 2553   1.497   2.789   7.218 -0.5180 -0.3353 -0.2226
  147POPC  H12B 2554   1.428   2.953   7.225  0.1391  0.2921  0.4605
  147POPC   C13 2555   1.184   2.889   7.340  0.4689 -0.2913 -0.1059
  147POPC  H13A 2556   1.188   2.997   7.343 -0.8764 -0.2531  1.3161
  147POPC  H13B 2557   1.129   2.853   7.254  0.0625 -0.8318  0.3665
  147POPC  H13C 2558   1.126   2.854   7.424  0.3377 -0.0438 -0.0918
  147POPC   C14 2559   1.282   2.672   7.331 -0.1486 -0.1147 -0.1854
  147POPC  H14A 2560   1.268   2.631   7.430 -0.5068 -0.7110 -0.4760
  147POPC  H14B 2561   1.193   2.656   7.273  0.3635 -1.1055 -0.7437
  147POPC  H14C 2562   1.362   2.617   7.283  1.0165  1.1492  0.2537
  147POPC   C15 2563   1.389   2.849   7.467 -0.8439  0.1453 -0.1080
  147POPC  H15A 2564   1.334   2.848   7.560 -3.1141  3.5164 -1.1934
  147POPC  H15B 2565   1.410   2.954   7.454  1.2278 -0.3979 -1.7885
  147POPC  H15C 2566   1.482   2.796   7.474  0.2373  1.4989 -2.8585
  147POPC   C11 2567   1.336   2.814   7.083  0.0133 -0.1437  0.2939
  147POPC  H11A 2568   1.392   2.870   7.005 -1.7010  0.8993 -0.2290
  147POPC  H11B 2569   1.227   2.835   7.089  0.2655  2.0717 -1.5527
  147POPC     P 2570   1.284   2.609   6.934  0.1895  0.1627 -0.4882
  147POPC   O13 2571   1.206   2.709   6.853  0.2679  0.5834 -0.1611
  147POPC   O14 2572   1.203   2.496   6.982  0.3341  0.0122  0.2625
  147POPC   O12 2573   1.357   2.679   7.051 -0.1843 -0.0432  0.1752
  147POPC   O11 2574   1.401   2.552   6.845 -0.3760 -0.0992 -0.4785
  147POPC    C1 2575   1.492   2.645   6.782  0.0536  0.1167  0.4342
  147POPC    HA 2576   1.591   2.597   6.766  0.2498  1.2077 -2.1283
  147POPC    HB 2577   1.497   2.744   6.833  0.0365 -0.6556  2.0121
  147POPC    C2 2578   1.443   2.670   6.635 -0.0760  0.4410 -0.1655
  147POPC    HS 2579   1.341   2.709   6.656 -0.5087 -0.8621  0.2632
  147POPC   O21 2580   1.442   2.556   6.556 -0.3606 -0.7999  0.2806
  147POPC   C21 2581   1.345   2.549   6.470 -0.5566  0.2924 -0.9075
  147POPC   O22 2582   1.238   2.607   6.472 -0.0718 -0.3077 -0.0601
  147POPC   C22 2583   1.382   2.435   6.374  0.3421 -0.8210 -0.4263
  147POPC   H2R 2584   1.350   2.337   6.413 -1.0792 -0.1772  0.0822
  147POPC   H2S 2585   1.491   2.441   6.349  0.9150  0.2872  2.0592
  147POPC    C3 2586   1.512   2.793   6.567  0.2903 -0.7721  1.4826
  147POPC    HX 2587   1.611   2.763   6.526  0.9711  2.2069  0.7117
  147POPC    HY 2588   1.523   2.867   6.650  3.0213  0.1105  0.4367
  147POPC   O31 2589   1.426   2.844   6.466  0.3395 -0.0332 -0.3165
  147POPC   C31 2590   1.486   2.929   6.387 -0.3141 -0.1263  0.5123
  147POPC   O32 2591   1.598   2.973   6.399 -0.1152 -0.6207 -0.0673
  147POPC   C32 2592   1.391   2.970   6.273 -0.0136  0.4350  0.2853
  147POPC   H2X 2593   1.355   3.074   6.283 -1.4861 -0.1129  0.9775
  147POPC   H2Y 2594   1.305   2.900   6.274  1.6761 -1.7916 -0.9021
  147POPC   C23 2595   1.303   2.449   6.237 -0.7011  0.2349 -0.3354
  147POPC   H3R 2596   1.195   2.457   6.261 -0.8356  0.3990 -0.9708
  147POPC   H3S 2597   1.312   2.352   6.183  0.2166  1.3724 -2.3589
  147POPC   C24 2598   1.347   2.570   6.150 -0.2046  1.0472  0.3898
  147POPC   H4R 2599   1.355   2.663   6.210 -1.6593  1.6269 -0.2425
  147POPC   H4S 2600   1.261   2.591   6.082  1.6014  1.5024 -1.8616
  147POPC   C25 2601   1.479   2.551   6.072  0.0574  0.5172  0.3888
  147POPC   H5R 2602   1.551   2.546   6.156  1.4127  1.6913 -0.6367
  147POPC   H5S 2603   1.496   2.644   6.013 -0.7055  0.2935 -0.2012
  147POPC   C26 2604   1.493   2.443   5.968  0.2448 -0.4086  0.3117
  147POPC   H6R 2605   1.414   2.450   5.891 -0.0344  1.4987  0.7143
  147POPC   H6S 2606   1.466   2.350   6.023 -3.6479  0.6522  0.4886
  147POPC   C27 2607   1.627   2.449   5.893  0.2605  0.4109  0.4966
  147POPC   H7R 2608   1.713   2.442   5.963 -0.0357 -2.1054  0.7167
  147POPC   H7S 2609   1.642   2.538   5.829  0.7173  0.1880  0.2858
  147POPC   C28 2610   1.634   2.329   5.802 -0.2157  0.2089 -0.2214
  147POPC   H8R 2611   1.709   2.351   5.723 -0.7443 -1.9533 -1.4002
  147POPC   H8S 2612   1.543   2.328   5.738 -1.7197 -0.1538  1.8348
  147POPC   C29 2613   1.669   2.196   5.862  0.4358 -0.4844 -0.3294
  147POPC   H91 2614   1.595   2.158   5.933 -0.7889 -0.8973 -1.7656
  147POPC  C210 2615   1.760   2.104   5.822  0.1934 -0.6830  0.5544
  147POPC  H101 2616   1.766   2.013   5.884 -1.3366 -2.3274 -1.5542
  147POPC  C211 2617   1.871   2.109   5.718  0.7246 -0.5940  0.7353
  147POPC  H11R 2618   1.890   2.215   5.690 -0.6154 -0.2312  1.1560
  147POPC  H11S 2619   1.839   2.063   5.622  1.3773 -1.7402  1.0553
  147POPC  C212 2620   2.002   2.047   5.775  0.9656 -0.7337 -0.1361
  147POPC  H12R 2621   1.974   1.943   5.803 -1.7431 -1.0351 -3.4098
  147POPC  H12S 2622   2.033   2.109   5.863 -0.0628 -0.2031 -0.1299
  147POPC  C213 2623   2.120   2.046   5.676  0.5194  0.3016 -0.4521
  147POPC  H13R 2624   2.135   2.148   5.633 -1.6328  1.0292  0.3889
  147POPC  H13S 2625   2.099   1.986   5.586 -0.2031 -0.7396  0.3870
  147POPC  C214 2626   2.246   1.990   5.741  0.6096  0.0543  0.5122
  147POPC  H14R 2627   2.223   1.886   5.775  0.7143 -0.3459 -0.5867
  147POPC  H14S 2628   2.263   2.046   5.835 -0.2438  0.8984  0.1720
  147POPC  C215 2629   2.369   1.987   5.661 -0.0245 -0.4126  0.6497
  147POPC  H15R 2630   2.443   1.927   5.717  2.7994  0.7782 -1.5332
  147POPC  H15S 2631   2.408   2.090   5.647 -0.5567 -0.1572  1.0003
  147POPC  C216 2632   2.347   1.924   5.514  0.5318  0.7525 -0.2296
  147POPC  H16R 2633   2.273   1.978   5.450 -1.8108 -2.5363 -0.5932
  147POPC  H16S 2634   2.303   1.825   5.536  0.4814  1.3230  2.5247
  147POPC  C217 2635   2.472   1.912   5.438 -0.6373 -0.2535 -0.5792
  147POPC  H17R 2636   2.530   1.831   5.488 -1.2232 -1.4226 -1.7285
  147POPC  H17S 2637   2.535   2.003   5.439 -2.6346  1.2397 -2.2471
  147POPC  C218 2638   2.440   1.870   5.297  0.0669 -0.6189  0.1842
  147POPC  H18R 2639   2.534   1.866   5.238 -1.2109 -1.2246 -1.9673
  147POPC  H18S 2640   2.374   1.939   5.241  0.7467 -0.1877 -0.0909
  147POPC  H18T 2641   2.380   1.776   5.305 -0.5262 -0.0929  2.4346
  147POPC   C33 2642   1.457   2.964   6.138  0.9998 -0.7112 -0.3402
  147POPC   H3X 2643   1.518   2.875   6.113  0.1953 -1.6113  0.7935
  147POPC   H3Y 2644   1.531   3.047   6.133  1.6243 -1.3074 -1.6352
  147POPC   C34 2645   1.361   2.984   6.017 -0.1659  0.0873 -0.3005
  147POPC   H4X 2646   1.297   3.074   6.031 -0.1140 -0.1332  1.5091
  147POPC   H4Y 2647   1.297   2.894   6.013 -1.9112  1.2224  0.7883
  147POPC   C35 2648   1.442   2.997   5.888 -0.0421  0.0125 -0.0692
  147POPC   H5X 2649   1.509   2.909   5.880  0.3243  0.3113 -0.2964
  147POPC   H5Y 2650   1.505   3.088   5.887  1.4980 -0.9813  1.0644
  147POPC   C36 2651   1.348   3.002   5.760  0.0979  0.0721 -0.5868
  147POPC   H6X 2652   1.272   3.082   5.771  0.6431  0.8035 -1.9138
  147POPC   H6Y 2653   1.298   2.903   5.749  0.2048  0.2201 -2.8828
  147POPC   C37 2654   1.408   3.061   5.635  0.1311  0.1541 -0.0216
  147POPC   H7X 2655   1.511   3.024   5.618  0.2649 -1.5087  3.4774
  147POPC   H7Y 2656   1.419   3.170   5.655 -1.8550  0.3694  0.1053
  147POPC   C38 2657   1.324   3.054   5.507 -0.2895  0.4216  0.1868
  147POPC   H8X 2658   1.272   2.957   5.514  1.0885 -0.5538 -2.0484
  147POPC   H8Y 2659   1.385   3.055   5.414 -0.4510  0.1636  0.0801
  147POPC   C39 2660   1.215   3.151   5.497  0.4954 -0.7660  0.2546
  147POPC   H9X 2661   1.269   3.239   5.455  0.4787 -0.3513  1.0796
  147POPC   H9Y 2662   1.169   3.181   5.594  2.4084  0.6724  0.7800
  147POPC  C310 2663   1.108   3.118   5.393 -0.8436  1.0400  0.7044
  147POPC  H10X 2664   1.015   3.173   5.418 -3.4123 -2.2245 -0.9077
  147POPC  H10Y 2665   1.074   3.012   5.400 -0.5560  0.9928  1.4131
  147POPC  C311 2666   1.148   3.157   5.244  0.1256  0.1702 -0.3856
  147POPC  H11X 2667   1.241   3.106   5.210  0.9675  2.1052 -1.1281
  147POPC  H11Y 2668   1.175   3.265   5.248  0.7834  0.1327 -2.5802
  147POPC  C312 2669   1.034   3.126   5.145 -0.8071  0.7188  0.1819
  147POPC  H12X 2670   0.933   3.135   5.191 -1.2796 -1.4851 -0.3000
  147POPC  H12Y 2671   1.034   3.019   5.115  0.5499  0.6354  0.3959
  147POPC  C313 2672   1.042   3.212   5.022 -0.6378  0.3252 -0.8136
  147POPC  H13X 2673   1.142   3.201   4.974 -0.3209  0.5538 -0.2131
  147POPC  H13Y 2674   1.023   3.315   5.060 -1.1633 -0.5569  1.4926
  147POPC  C314 2675   0.931   3.184   4.928 -0.5607  0.5677  0.0935
  147POPC  H14X 2676   0.832   3.215   4.967 -1.6872 -2.5182 -0.0050
  147POPC  H14Y 2677   0.918   3.076   4.906  0.0052  0.3841  0.6307
  147POPC  C315 2678   0.946   3.254   4.795 -0.3200  0.5013 -0.8385
  147POPC  H15X 2679   1.042   3.225   4.747  0.6804 -2.2642  2.4459
  147POPC  H15Y 2680   0.936   3.364   4.807 -0.0521  0.3760  0.7342
  147POPC  C316 2681   0.833   3.198   4.707  0.0212 -0.3875 -0.0666
  147POPC  H16X 2682   0.743   3.262   4.708  0.4170  0.1887 -0.6035
  147POPC  H16Y 2683   0.802   3.095   4.737 -0.0955 -0.6640 -1.0968
  147POPC  H16Z 2684   0.863   3.196   4.600 -1.4574 -0.5629 -0.5005
  148POPC     N 2685   0.225   3.363   6.544 -0.2287  0.2333 -0.6859
  148POPC   C12 2686   0.361   3.329   6.495 -0.4676 -0.2955 -0.4154
  148POPC  H12A 2687   0.385   3.372   6.399 -1.0043  1.9403  0.3974
  148POPC  H12B 2688   0.366   3.222   6.482 -3.3697 -0.8380  1.9635
  148POPC   C13 2689   0.217   3.337   6.688 -0.1899 -0.7496  0.0819
  148POPC  H13A 2690   0.116   3.360   6.718  0.5093 -1.7387  3.5539
  148POPC  H13B 2691   0.245   3.237   6.715  0.9667 -0.7416 -0.9912
  148POPC  H13C 2692   0.293   3.393   6.739  1.0447 -2.3295  0.0433
  148POPC   C14 2693   0.192   3.511   6.514  0.5221  0.3114 -0.3018
  148POPC  H14A 2694   0.099   3.544   6.558 -0.5242 -1.7102 -0.8707
  148POPC  H14B 2695   0.271   3.576   6.550 -0.4754  0.7224  1.2086
  148POPC  H14C 2696   0.183   3.529   6.407  1.2321  1.1450 -0.2362
  148POPC   C15 2697   0.130   3.268   6.474  0.5060  0.3970 -0.1934
  148POPC  H15A 2698   0.026   3.293   6.491  0.9648  1.2562  1.6277
  148POPC  H15B 2699   0.137   3.166   6.506 -0.0631  0.0793 -1.0474
  148POPC  H15C 2700   0.144   3.266   6.367 -1.7585  0.6306 -0.5547
  148POPC   C11 2701   0.477   3.382   6.582  0.3456  0.2030  0.2644
  148POPC  H11A 2702   0.489   3.329   6.679  0.0483 -1.7867 -0.7277
  148POPC  H11B 2703   0.477   3.489   6.612  0.6370  0.5483 -0.9282
  148POPC     P 2704   0.672   3.428   6.397 -0.4906  0.0802 -0.3075
  148POPC   O13 2705   0.762   3.341   6.320 -0.5860  0.3708  0.1432
  148POPC   O14 2706   0.730   3.551   6.454  0.0354 -0.2744  0.1564
  148POPC   O12 2707   0.595   3.348   6.511 -0.1824 -0.2184 -0.6748
  148POPC   O11 2708   0.542   3.459   6.309 -0.5176 -0.0579 -0.0877
  148POPC    C1 2709   0.562   3.550   6.200 -0.2117 -0.5310  0.1140
  148POPC    HA 2710   0.645   3.518   6.133  0.5638  1.7650 -0.1070
  148POPC    HB 2711   0.578   3.653   6.237  0.8830  0.1575 -2.1404
  148POPC    C2 2712   0.446   3.556   6.102  0.1662 -0.4171 -0.2508
  148POPC    HS 2713   0.348   3.552   6.154  0.1870 -2.8454 -0.2827
  148POPC   O21 2714   0.457   3.449   6.021  0.4449 -0.2577  0.7041
  148POPC   C21 2715   0.386   3.340   6.051  0.2434  0.5160 -0.3369
  148POPC   O22 2716   0.308   3.331   6.151 -0.5026  0.1975  0.2326
  148POPC   C22 2717   0.435   3.216   5.963 -0.5234  0.2488 -0.1520
  148POPC   H2R 2718   0.456   3.135   6.036  3.4907  0.2471 -1.0460
  148POPC   H2S 2719   0.537   3.242   5.928 -0.3318 -0.0972  0.1396
  148POPC    C3 2720   0.453   3.683   6.013 -0.1591  0.2576 -0.3256
  148POPC    HX 2721   0.542   3.686   5.946  0.8821 -1.2894  0.9000
  148POPC    HY 2722   0.466   3.772   6.078  2.7290 -0.4514  0.2292
  148POPC   O31 2723   0.329   3.678   5.927  0.4543  0.7657  0.6183
  148POPC   C31 2724   0.234   3.771   5.955 -0.3380 -0.4852 -0.5130
  148POPC   O32 2725   0.248   3.857   6.039 -0.1422 -0.2689  0.1090
  148POPC   C32 2726   0.105   3.739   5.880 -0.3895  0.2587 -0.6186
  148POPC   H2X 2727   0.065   3.838   5.849 -0.8272  0.1656 -0.3616
  148POPC   H2Y 2728   0.031   3.685   5.942  0.7833 -1.4044 -0.5944
  148POPC   C23 2729   0.346   3.191   5.845  0.6927 -1.0757  0.3078
  148POPC   H3R 2730   0.244   3.226   5.874  1.2153  2.4406 -1.4637
  148POPC   H3S 2731   0.344   3.084   5.819  0.3519 -1.5137  1.9789
  148POPC   C24 2732   0.391   3.275   5.721  0.1922 -0.5566 -0.3246
  148POPC   H4R 2733   0.486   3.236   5.680  1.8283  0.2405  2.4394
  148POPC   H4S 2734   0.412   3.380   5.752 -0.9435 -0.1905 -0.7180
  148POPC   C25 2735   0.287   3.289   5.606 -0.5467  0.0897 -0.1790
  148POPC   H5R 2736   0.181   3.303   5.634 -0.9462 -0.1605 -1.5179
  148POPC   H5S 2737   0.282   3.188   5.559 -0.8375 -0.2202  0.5114
  148POPC   C26 2738   0.334   3.380   5.488 -0.3100 -0.4734 -0.0946
  148POPC   H6R 2739   0.442   3.358   5.482  0.4965  3.0042 -0.5736
  148POPC   H6S 2740   0.317   3.487   5.514 -1.6248 -0.7101  0.1108
  148POPC   C27 2741   0.257   3.371   5.357 -0.1947  0.6424  0.2743
  148POPC   H7R 2742   0.150   3.400   5.369  0.0326  2.3511 -1.4054
  148POPC   H7S 2743   0.251   3.262   5.334  0.1359  0.2324  1.9525
  148POPC   C28 2744   0.323   3.433   5.233 -0.0277  0.5327  0.0243
  148POPC   H8R 2745   0.272   3.395   5.143  0.7681 -0.0069 -0.2114
  148POPC   H8S 2746   0.428   3.396   5.227 -0.4070 -0.5304 -0.2300
  148POPC   C29 2747   0.319   3.579   5.232  0.5278  0.0740  0.4979
  148POPC   H91 2748   0.380   3.628   5.310 -0.1815  0.9745  0.5051
  148POPC  C210 2749   0.227   3.662   5.171  0.4439 -0.4830 -0.5899
  148POPC  H101 2750   0.247   3.770   5.174 -0.1053 -0.3639 -1.0558
  148POPC  C211 2751   0.119   3.607   5.084 -0.0434 -0.1200  0.0779
  148POPC  H11R 2752   0.040   3.569   5.152 -0.1574  0.8206  0.4953
  148POPC  H11S 2753   0.153   3.522   5.021 -1.0294 -1.1704  0.9259
  148POPC  C212 2754   0.057   3.707   4.991  0.4390  0.6193  0.8051
  148POPC  H12R 2755  -0.005   3.787   5.037 -1.2778 -0.4414  0.4177
  148POPC  H12S 2756  -0.002   3.651   4.915  0.9658  1.5988 -0.3800
  148POPC  C213 2757   0.169   3.762   4.904 -0.4551 -0.2901  0.3056
  148POPC  H13R 2758   0.238   3.680   4.874  1.7769  1.3608  0.6115
  148POPC  H13S 2759   0.234   3.834   4.958 -0.5690 -0.5110  0.7351
  148POPC  C214 2760   0.114   3.843   4.783 -0.3433 -0.7794 -0.5869
  148POPC  H14R 2761   0.045   3.780   4.722 -1.2977 -0.7008  0.3879
  148POPC  H14S 2762   0.201   3.869   4.719 -0.2063 -1.2072 -0.5764
  148POPC  C215 2763   0.040   3.978   4.823 -0.3558  0.8652 -0.2547
  148POPC  H15R 2764   0.104   4.035   4.893 -0.3701  0.1225  0.3791
  148POPC  H15S 2765  -0.052   3.948   4.877 -0.2415 -0.4970 -0.7658
  148POPC  C216 2766  -0.005   4.065   4.701  0.1659  0.9880 -0.4914
  148POPC  H16R 2767  -0.064   3.995   4.637 -1.3109  1.6516  0.0991
  148POPC  H16S 2768   0.082   4.110   4.650  1.9296  1.1730  2.4788
  148POPC  C217 2769   6.339   4.172   4.751 -0.4013  0.3463  0.1522
  148POPC  H17R 2770   6.393   4.235   4.825  1.7809  0.1492 -1.1760
  148POPC  H17S 2771   6.267   4.119   4.817  0.0636  0.6337  0.9088
  148POPC  C218 2772   6.280   4.270   4.649  0.1439 -0.3166  0.2450
  148POPC  H18R 2773   6.216   4.215   4.577  0.3943  1.7221 -1.6242
  148POPC  H18S 2774   6.359   4.329   4.599  1.1536  0.0304  2.1628
  148POPC  H18T 2775   6.217   4.341   4.707 -0.1641  1.1077 -1.7507
  148POPC   C33 2776   0.126   3.653   5.756  0.2206  0.7011 -0.8682
  148POPC   H3X 2777   0.169   3.556   5.790  1.6087  1.6925  0.3548
  148POPC   H3Y 2778   0.205   3.701   5.694 -0.5903  2.4627 -0.6093
  148POPC   C34 2779   6.446   3.639   5.683 -0.5201 -0.8677 -0.0083
  148POPC   H4X 2780   6.408   3.732   5.636  1.5591 -0.0867 -0.2617
  148POPC   H4Y 2781   6.360   3.603   5.743 -0.2140 -1.1533  0.2617
  148POPC   C35 2782   0.026   3.556   5.553  0.4492  0.5971  0.6443
  148POPC   H5X 2783   0.049   3.454   5.591 -0.5442  0.0339 -0.2112
  148POPC   H5Y 2784   0.116   3.595   5.500  1.7396 -2.3937  0.4213
  148POPC   C36 2785   6.360   3.562   5.452 -0.0525 -1.0633  1.0897
  148POPC   H6X 2786   6.391   3.516   5.356  1.3746 -1.1083  1.5476
  148POPC   H6Y 2787   6.350   3.664   5.410 -1.4961 -1.9131 -0.8057
  148POPC   C37 2788   6.227   3.507   5.495  0.2297 -0.1360 -0.2839
  148POPC   H7X 2789   6.186   3.556   5.586  0.9634 -1.0556  0.5602
  148POPC   H7Y 2790   6.252   3.403   5.524  2.0479 -0.0404 -1.3432
  148POPC   C38 2791   6.119   3.501   5.386  0.0027 -0.3707  0.0284
  148POPC   H8X 2792   6.165   3.463   5.292 -2.5586 -1.5804 -0.8169
  148POPC   H8Y 2793   6.090   3.605   5.359  1.1048 -0.2544 -0.7676
  148POPC   C39 2794   5.998   3.424   5.420  0.4381  0.0710 -0.0016
  148POPC   H9X 2795   5.943   3.480   5.498  0.4763 -0.8638  0.7164
  148POPC   H9Y 2796   6.026   3.325   5.462  1.7594  0.5701  0.3413
  148POPC  C310 2797   5.910   3.394   5.296  0.2630  0.0427 -0.1616
  148POPC  H10X 2798   5.835   3.319   5.329 -1.4542  2.5030  2.0030
  148POPC  H10Y 2799   5.972   3.360   5.210  0.5847  2.2113 -0.8698
  148POPC  C311 2800   5.839   3.526   5.248 -0.1398  0.0696 -0.1793
  148POPC  H11X 2801   5.911   3.610   5.259 -0.8460  0.4080  2.2350
  148POPC  H11Y 2802   5.754   3.544   5.317 -0.8971 -1.0197 -0.7885
  148POPC  C312 2803   5.789   3.503   5.096 -0.2525  0.3106 -0.5852
  148POPC  H12X 2804   5.790   3.392   5.083 -0.6432 -0.3707  3.5902
  148POPC  H12Y 2805   5.848   3.551   5.016  1.8549 -2.0094 -0.5611
  148POPC  C313 2806   5.648   3.548   5.059  0.4283  0.2549 -0.0636
  148POPC  H13X 2807   5.646   3.655   5.089 -0.0228  0.1069  0.4598
  148POPC  H13Y 2808   5.574   3.505   5.130  0.3803  2.6914  1.4643
  148POPC  C314 2809   5.609   3.537   4.907 -0.2437  0.2650 -0.4497
  148POPC  H14X 2810   5.689   3.593   4.854  1.1548  0.1853  1.4596
  148POPC  H14Y 2811   5.514   3.592   4.891 -2.4648 -2.7392  1.2660
  148POPC  C315 2812   5.618   3.389   4.859 -0.1753  0.3086  0.2841
  148POPC  H15X 2813   5.707   3.334   4.896 -0.1458 -0.8802 -1.4208
  148POPC  H15Y 2814   5.638   3.390   4.749 -0.4325  1.4015  0.2367
  148POPC  C316 2815   5.483   3.323   4.875 -0.8901  0.0094 -0.0274
  148POPC  H16X 2816   5.488   3.219   4.835  1.6846 -1.0151  2.6355
  148POPC  H16Y 2817   5.398   3.378   4.829 -0.0697  0.9775 -0.4252
  148POPC  H16Z 2818   5.461   3.328   4.984  1.9105  0.5759  0.5944
  149POPC     N 2819   3.149   6.219   6.645  0.1880  0.1811  0.2996
  149POPC   C12 2820   3.210   6.315   6.554  0.8652 -0.4840  0.3782
  149POPC  H12A 2821   3.317   6.299   6.547  0.9484  0.6857 -1.7848
  149POPC  H12B 2822   3.208   6.419   6.583  1.7534  0.4241 -2.5034
  149POPC   C13 2823   3.139   6.074   6.593 -0.5504 -0.0759 -0.1593
  149POPC  H13A 2824   3.078   6.015   6.659  1.3417 -1.0998  0.7740
  149POPC  H13B 2825   3.096   6.072   6.494 -2.0252 -0.9935  0.4673
  149POPC  H13C 2826   3.234   6.022   6.599 -0.7128 -0.2922  0.5960
  149POPC   C14 2827   3.217   6.225   6.776 -0.1190  0.0671 -0.0564
  149POPC  H14A 2828   3.235   6.322   6.820  2.8133 -0.9921  1.3385
  149POPC  H14B 2829   3.165   6.163   6.847  0.8940  1.5094  2.0520
  149POPC  H14C 2830   3.317   6.187   6.764 -0.1955 -0.1769  0.0888
  149POPC   C15 2831   3.008   6.263   6.669 -0.4873 -0.5363  0.0891
  149POPC  H15A 2832   3.004   6.359   6.717 -2.3092 -0.1121 -0.8264
  149POPC  H15B 2833   2.950   6.186   6.718 -1.0605 -0.0587  0.1770
  149POPC  H15C 2834   2.966   6.277   6.570 -0.3516 -0.7706 -0.0033
  149POPC   C11 2835   3.148   6.320   6.409 -0.7664  0.9583 -0.0739
  149POPC  H11A 2836   3.136   6.219   6.366 -0.1922  0.0576  1.7602
  149POPC  H11B 2837   3.228   6.364   6.345 -0.0937 -0.1844 -0.0437
  149POPC     P 2838   2.994   0.098   6.416 -0.1647 -0.0721  0.2454
  149POPC   O13 2839   3.047   0.155   6.540 -0.0781 -0.1828 -0.1775
  149POPC   O14 2840   2.850   0.129   6.384  0.1713 -0.2192  0.5013
  149POPC   O12 2841   3.021   6.384   6.418 -0.4701 -0.4846 -0.3181
  149POPC   O11 2842   3.083   0.152   6.301 -0.3702 -0.2533  0.0417
  149POPC    C1 2843   3.028   0.149   6.164 -0.0152 -0.1146  0.1578
  149POPC    HA 2844   3.059   0.245   6.119  0.1125  1.9969  4.3520
  149POPC    HB 2845   2.917   0.142   6.162 -0.0672  0.4713  0.9512
  149POPC    C2 2846   3.069   6.472   6.084 -0.5119 -0.1162 -0.3155
  149POPC    HS 2847   3.074   6.376   6.140 -2.2812 -1.2613 -1.9858
  149POPC   O21 2848   3.195   0.058   6.020  0.4907  0.0157  0.1216
  149POPC   C21 2849   3.287   6.411   6.031 -0.3436  0.2330  0.6639
  149POPC   O22 2850   3.276   6.307   6.093  0.1327 -0.2487 -0.4050
  149POPC   C22 2851   3.406   0.002   5.941 -0.7886  0.5165  0.5963
  149POPC   H2R 2852   3.462   0.087   5.986  0.1813  1.6701 -2.4950
  149POPC   H2S 2853   3.375   0.025   5.837  2.3974 -0.1310 -0.6264
  149POPC    C3 2854   2.978  -0.008   5.964  0.2171 -1.2916 -0.1299
  149POPC    HX 2855   2.984   0.074   5.889 -0.8056 -1.0058  0.0872
  149POPC    HY 2856   2.879   0.011   6.009  0.2710 -0.3569 -0.3711
  149POPC   O31 2857   2.988   6.306   5.909  0.1639 -0.3435  0.2674
  149POPC   C31 2858   3.038   6.292   5.786  0.3547 -0.1613  0.1027
  149POPC   O32 2859   3.078   6.382   5.710  0.1253  1.1040 -0.4328
  149POPC   C32 2860   3.034   6.144   5.746 -0.3545 -0.0680  1.1378
  149POPC   H2X 2861   2.940   6.100   5.786 -2.9516  1.4976 -2.7267
  149POPC   H2Y 2862   3.119   6.097   5.801  0.1332 -0.9006 -0.2941
  149POPC   C23 2863   3.502   6.326   5.930 -0.3283  0.1671  0.0659
  149POPC   H3R 2864   3.539   6.303   6.032 -0.1693  0.2533  0.0281
  149POPC   H3S 2865   3.598   6.358   5.885  0.3095  0.2590  1.4621
  149POPC   C24 2866   3.445   6.200   5.850 -0.3001 -0.2411  0.3180
  149POPC   H4R 2867   3.342   6.228   5.822  0.6066  1.4512 -1.4965
  149POPC   H4S 2868   3.430   6.111   5.916 -0.7412  1.1221  2.1594
  149POPC   C25 2869   3.523   6.178   5.720  0.1693  0.4537 -0.3436
  149POPC   H5R 2870   3.624   6.141   5.750 -0.6332 -1.8134 -0.2118
  149POPC   H5S 2871   3.532   6.268   5.656 -2.6496  1.4076  0.4711
  149POPC   C26 2872   3.457   6.065   5.642  0.1904 -1.0782  0.7187
  149POPC   H6R 2873   3.353   6.096   5.615  1.1456  0.8451 -1.0522
  149POPC   H6S 2874   3.449   5.974   5.706  3.6380 -0.5154  2.1499
  149POPC   C27 2875   3.535   6.033   5.518 -0.6558 -0.5373 -0.2852
  149POPC   H7R 2876   3.638   5.993   5.528 -0.8403 -1.0110 -0.2684
  149POPC   H7S 2877   3.546   6.131   5.467 -1.7857 -0.1013  0.2731
  149POPC   C28 2878   3.460   5.937   5.413  0.4124  0.3759 -0.3750
  149POPC   H8R 2879   3.355   5.975   5.410  1.1332  2.8494  2.0319
  149POPC   H8S 2880   3.448   5.834   5.452 -0.5558  0.4375 -0.4760
  149POPC   C29 2881   3.527   5.928   5.278 -0.4254 -0.0970  0.0569
  149POPC   H91 2882   3.614   5.861   5.269  1.2737  1.8485  0.9727
  149POPC  C210 2883   3.515   6.018   5.181  0.0522  0.2846 -0.3231
  149POPC  H101 2884   3.574   6.017   5.088 -1.4012 -2.0406 -1.3386
  149POPC  C211 2885   3.411   6.128   5.174  0.0598  0.5504  0.1303
  149POPC  H11R 2886   3.467   6.220   5.200  2.8470 -0.9038 -0.4274
  149POPC  H11S 2887   3.329   6.114   5.248  1.3826  1.9342  1.9564
  149POPC  C212 2888   3.338   6.170   5.045 -0.2551  0.4345  0.2851
  149POPC  H12R 2889   3.260   6.248   5.059  1.1731  2.1343 -0.9032
  149POPC  H12S 2890   3.293   6.079   4.998  2.0949  0.1082 -1.5614
  149POPC  C213 2891   3.430   6.226   4.939  0.0097  0.2266 -0.3551
  149POPC  H13R 2892   3.481   6.148   4.879  0.2935 -1.2792  1.7452
  149POPC  H13S 2893   3.510   6.285   4.989 -0.6937  0.1418  0.8937
  149POPC  C214 2894   3.354   6.306   4.836 -0.7970 -0.3930 -0.0941
  149POPC  H14R 2895   3.301   6.396   4.875 -1.7721  0.0709 -2.2844
  149POPC  H14S 2896   3.274   6.250   4.782 -2.6888 -0.4136  2.5591
  149POPC  C215 2897   3.444   6.350   4.724  0.2280  0.1430 -0.1904
  149POPC  H15R 2898   3.379   6.361   4.634  1.9056 -1.5764 -1.7053
  149POPC  H15S 2899   3.509   6.265   4.695  1.8677  1.0377  0.7021
  149POPC  C216 2900   3.521   0.040   4.748  0.4607  0.0696  0.1626
  149POPC  H16R 2901   3.559   0.028   4.852  4.9345 -1.1324 -1.3537
  149POPC  H16S 2902   3.442   0.116   4.735 -0.2528 -0.5414  0.8271
  149POPC  C217 2903   3.632   0.074   4.638  0.0616  0.7059 -0.2460
  149POPC  H17R 2904   3.579   0.062   4.541  0.4942 -2.8128 -0.1830
  149POPC  H17S 2905   3.707  -0.008   4.636  0.9480  1.5207 -2.0611
  149POPC  C218 2906   3.704   0.204   4.660  0.3052  0.2283  0.0212
  149POPC  H18R 2907   3.633   0.289   4.653  0.1176  0.1486  0.8789
  149POPC  H18S 2908   3.761   0.237   4.571 -0.9982  1.1267 -0.5072
  149POPC  H18T 2909   3.760   0.210   4.755 -1.5875  2.9418  1.0911
  149POPC   C33 2910   3.031   6.122   5.588  0.0822  0.3116 -0.0801
  149POPC   H3X 2911   3.122   6.158   5.536 -0.4236 -0.1474 -1.3431
  149POPC   H3Y 2912   2.947   6.169   5.532 -0.4994 -0.4564  0.1236
  149POPC   C34 2913   3.016   5.970   5.566  0.1794  0.9454  0.4635
  149POPC   H4X 2914   2.961   5.917   5.646 -0.2232 -0.7368 -0.8769
  149POPC   H4Y 2915   3.118   5.930   5.551 -0.6018 -0.3583 -1.7329
  149POPC   C35 2916   2.942   5.934   5.441  0.3125 -0.1208  0.6428
  149POPC   H5X 2917   2.832   5.948   5.450 -0.0855 -2.0011 -0.6214
  149POPC   H5Y 2918   2.962   5.824   5.433  0.5664 -0.0525  0.2893
  149POPC   C36 2919   2.990   5.998   5.312  0.0261 -0.4731 -0.0108
  149POPC   H6X 2920   3.094   5.966   5.289 -0.6457 -2.0003 -1.1146
  149POPC   H6Y 2921   2.990   6.109   5.326  0.7381 -0.5366  0.5499
  149POPC   C37 2922   2.905   5.965   5.191  0.0781 -0.1255  0.0054
  149POPC   H7X 2923   2.802   6.003   5.204  0.2187 -0.2304  1.6528
  149POPC   H7Y 2924   2.909   5.854   5.191  0.3684 -0.1147 -0.5309
  149POPC   C38 2925   2.955   6.000   5.048 -0.2319 -0.4613 -0.5812
  149POPC   H8X 2926   3.065   5.988   5.059 -0.0027  2.5733  2.2066
  149POPC   H8Y 2927   2.938   6.110   5.042 -0.3360 -0.3436  1.2928
  149POPC   C39 2928   2.898   5.927   4.930  0.1474  0.4535 -0.2866
  149POPC   H9X 2929   2.912   5.817   4.941 -0.0800  0.5783  1.5521
  149POPC   H9Y 2930   2.951   5.953   4.836 -0.5316 -0.6756 -1.0020
  149POPC  C310 2931   2.752   5.952   4.899 -0.0930  0.0353 -0.8263
  149POPC  H10X 2932   2.738   6.062   4.902 -0.3935  0.0182 -1.4109
  149POPC  H10Y 2933   2.691   5.904   4.979 -0.1311 -1.7375 -1.8612
  149POPC  C311 2934   2.696   5.896   4.770  0.8029 -0.7494  0.2670
  149POPC  H11X 2935   2.691   5.785   4.766  1.3814 -0.7456 -1.3617
  149POPC  H11Y 2936   2.765   5.927   4.688 -0.0312  0.6382  0.0496
  149POPC  C312 2937   2.558   5.967   4.753 -0.3336 -0.1741  0.5507
  149POPC  H12X 2938   2.565   6.077   4.753 -0.5086 -0.1569 -0.0111
  149POPC  H12Y 2939   2.496   5.930   4.838  1.0068 -1.7651  0.8871
  149POPC  C313 2940   2.497   5.947   4.610  0.2559  0.3211 -0.2501
  149POPC  H13X 2941   2.468   5.840   4.604 -1.1052  0.6696 -0.1639
  149POPC  H13Y 2942   2.564   5.967   4.523 -1.1372 -0.3220 -1.5066
  149POPC  C314 2943   2.378   6.041   4.584 -0.8659 -0.6974 -0.2753
  149POPC  H14X 2944   2.398   6.149   4.567  0.9111 -0.7922  0.9495
  149POPC  H14Y 2945   2.309   6.043   4.671 -1.1093 -0.0789 -0.4748
  149POPC  C315 2946   2.313   5.994   4.455  0.4172  0.4941 -0.7202
  149POPC  H15X 2947   2.269   5.892   4.452 -1.6610  1.3616 -1.4518
  149POPC  H15Y 2948   2.385   6.006   4.371 -0.0794  0.5836 -1.1409
  149POPC  C316 2949   2.201   6.092   4.420  0.8108  0.1069 -0.1870
  149POPC  H16X 2950   2.140   6.048   4.338  0.2571 -1.2016  0.9000
  149POPC  H16Y 2951   2.230   6.195   4.391 -1.2935  0.6774 -0.4856
  149POPC  H16Z 2952   2.133   6.100   4.507 -1.5872  0.6454 -1.9882
  150POPC     N 2953   1.027   4.761   6.199 -0.4481 -0.3482  0.6214
  150POPC   C12 2954   1.080   4.714   6.332 -0.3773 -0.1425 -0.2785
  150POPC  H12A 2955   1.005   4.649   6.376  0.0136  1.2182  2.6295
  150POPC  H12B 2956   1.082   4.797   6.400 -2.1167  0.4793 -0.9277
  150POPC   C13 2957   1.127   4.850   6.134  0.3068 -0.7347  0.3270
  150POPC  H13A 2958   1.150   4.932   6.201 -0.4244 -0.3254  0.0842
  150POPC  H13B 2959   1.221   4.803   6.108 -0.1599 -0.5213 -2.0437
  150POPC  H13C 2960   1.082   4.891   6.044  2.3838  0.3830 -0.2830
  150POPC   C14 2961   1.009   4.639   6.109  0.3629  0.5143 -0.4243
  150POPC  H14A 2962   0.935   4.576   6.157  0.3547 -0.0883 -1.1998
  150POPC  H14B 2963   0.964   4.672   6.016 -1.2562 -2.7752 -0.9473
  150POPC  H14C 2964   1.106   4.597   6.086  0.4361  0.0658  0.6906
  150POPC   C15 2965   0.897   4.831   6.215  0.1139 -0.3809  0.2461
  150POPC  H15A 2966   0.828   4.771   6.271  1.0816 -2.6194 -0.8255
  150POPC  H15B 2967   0.848   4.842   6.120  0.8235 -2.9542 -0.4777
  150POPC  H15C 2968   0.907   4.919   6.277  2.9063 -1.6979  1.8863
  150POPC   C11 2969   1.215   4.640   6.330 -0.5370 -0.0041 -0.4078
  150POPC  H11A 2970   1.300   4.699   6.290  1.6704 -2.2830  0.7082
  150POPC  H11B 2971   1.212   4.551   6.264  0.9743 -0.8847  0.6586
  150POPC     P 2972   1.401   4.560   6.511 -0.0729  0.2629  0.0690
  150POPC   O13 2973   1.392   4.447   6.607 -0.0899  0.2898 -0.3735
  150POPC   O14 2974   1.471   4.679   6.559 -0.0499  0.0811  0.5299
  150POPC   O12 2975   1.259   4.601   6.457  0.0196  0.4117 -0.4477
  150POPC   O11 2976   1.474   4.503   6.387 -0.0092  0.5607  0.1144
  150POPC    C1 2977   1.433   4.393   6.300 -0.2304 -0.2110 -0.5862
  150POPC    HA 2978   1.374   4.421   6.211  1.1197  1.3959 -1.0313
  150POPC    HB 2979   1.369   4.327   6.362  3.7099 -2.2731  1.7432
  150POPC    C2 2980   1.563   4.322   6.250 -0.6905 -0.0856 -0.1340
  150POPC    HS 2981   1.628   4.308   6.338  2.7836  0.7435 -2.3773
  150POPC   O21 2982   1.633   4.404   6.159 -0.2888 -0.3664  0.5241
  150POPC   C21 2983   1.769   4.417   6.167  0.5814 -0.1560  0.0009
  150POPC   O22 2984   1.837   4.353   6.239 -0.5379 -0.0863  0.0938
  150POPC   C22 2985   1.816   4.508   6.048  0.4406 -0.0554 -0.0634
  150POPC   H2R 2986   1.831   4.610   6.088  1.0437 -0.2015  0.1002
  150POPC   H2S 2987   1.739   4.504   5.968 -0.2521  2.6624  0.3708
  150POPC    C3 2988   1.535   4.182   6.184  0.5972 -0.6106  0.6356
  150POPC    HX 2989   1.474   4.214   6.097 -0.8585 -1.7587  1.1850
  150POPC    HY 2990   1.469   4.120   6.250  0.7544  0.8950  2.2979
  150POPC   O31 2991   1.656   4.118   6.132  0.0547  0.0835 -0.0151
  150POPC   C31 2992   1.698   4.018   6.207 -0.5032  0.3603 -0.0143
  150POPC   O32 2993   1.646   3.987   6.313  1.0201  0.1597 -0.6752
  150POPC   C32 2994   1.825   3.962   6.147 -0.0187  0.2273 -0.1127
  150POPC   H2X 2995   1.850   3.876   6.213  2.0711  0.1415 -0.9432
  150POPC   H2Y 2996   1.901   4.042   6.163  1.1213 -0.9078  0.3815
  150POPC   C23 2997   1.958   4.468   5.991 -0.7971  0.3069  0.4128
  150POPC   H3R 2998   2.037   4.483   6.067 -0.6157  1.8719 -0.0445
  150POPC   H3S 2999   1.979   4.548   5.917 -0.8950  0.6670  0.7703
  150POPC   C24 3000   1.965   4.324   5.935 -0.2037  0.2588  0.3983
  150POPC   H4R 3001   1.877   4.306   5.869 -2.4401 -0.9796  3.4664
  150POPC   H4S 3002   1.953   4.251   6.018  0.4937 -0.4361 -0.1098
  150POPC   C25 3003   2.097   4.287   5.875 -0.8755 -0.0316  0.5922
  150POPC   H5R 3004   2.084   4.180   5.845 -1.0032  0.3555 -0.8231
  150POPC   H5S 3005   2.181   4.296   5.948 -0.2913  0.3786 -0.1149
  150POPC   C26 3006   2.142   4.367   5.758 -0.2326 -0.1856 -0.3386
  150POPC   H6R 3007   2.166   4.469   5.794  0.9578 -1.1950  1.9308
  150POPC   H6S 3008   2.051   4.373   5.694 -0.3635 -1.3725 -0.2957
  150POPC   C27 3009   2.260   4.302   5.679 -0.3217 -0.2332  1.0004
  150POPC   H7R 3010   2.345   4.307   5.750 -0.8515  3.1697  1.5522
  150POPC   H7S 3011   2.277   4.366   5.590  0.7480 -0.0687  1.3105
  150POPC   C28 3012   2.244   4.149   5.632  0.5540 -0.8962 -0.0134
  150POPC   H8R 3013   2.190   4.095   5.713 -0.6259  0.3809  0.0910
  150POPC   H8S 3014   2.350   4.118   5.625  0.9791  0.8044 -2.3120
  150POPC   C29 3015   2.180   4.144   5.497 -0.2179  0.1944  0.3849
  150POPC   H91 3016   2.075   4.113   5.491 -0.2227  0.3673 -0.6225
  150POPC  C210 3017   2.245   4.160   5.379 -0.1784 -0.4755 -0.1842
  150POPC  H101 3018   2.179   4.143   5.293 -2.0676  3.3108  0.2987
  150POPC  C211 3019   2.382   4.207   5.352 -0.1449 -0.3892  0.9259
  150POPC  H11R 3020   2.428   4.246   5.445  0.9755  0.4782  0.0299
  150POPC  H11S 3021   2.368   4.295   5.286 -1.4951 -0.8979  0.4897
  150POPC  C212 3022   2.455   4.094   5.272  0.8991 -0.6798 -0.6189
  150POPC  H12R 3023   2.455   3.998   5.328  1.2441 -1.3448 -1.7311
  150POPC  H12S 3024   2.558   4.134   5.266  0.1150  1.8580  1.1683
  150POPC  C213 3025   2.399   4.070   5.128 -0.0152 -0.0561 -0.5761
  150POPC  H13R 3026   2.360   4.165   5.086 -2.4393  0.2365  1.9700
  150POPC  H13S 3027   2.299   4.021   5.131 -0.0730  0.0768 -0.2801
  150POPC  C214 3028   2.507   4.002   5.038 -0.2780 -0.5341 -0.3379
  150POPC  H14R 3029   2.611   4.037   5.051 -0.5640  0.1316  0.2259
  150POPC  H14S 3030   2.490   4.035   4.933  2.5134  0.6331 -0.5102
  150POPC  C215 3031   2.496   3.850   5.058 -0.0853  0.5478  0.6056
  150POPC  H15R 3032   2.395   3.807   5.039 -0.1282  0.1255  1.7038
  150POPC  H15S 3033   2.527   3.829   5.162  3.0279  0.9428 -0.1439
  150POPC  C216 3034   2.602   3.774   4.962 -0.4515  0.5246  0.5614
  150POPC  H16R 3035   2.704   3.809   4.989  0.5391 -1.7834  0.0514
  150POPC  H16S 3036   2.588   3.807   4.857  0.7914 -0.4333  0.0728
  150POPC  C217 3037   2.604   3.623   4.962  0.3527  0.4367  0.0639
  150POPC  H17R 3038   2.615   3.597   5.069  1.2480  4.3409  1.0541
  150POPC  H17S 3039   2.690   3.579   4.907 -1.8425 -1.2480 -2.2871
  150POPC  C218 3040   2.480   3.550   4.912  0.2265 -0.2291  0.9838
  150POPC  H18R 3041   2.398   3.557   4.986 -1.1099  0.3753 -0.4993
  150POPC  H18S 3042   2.510   3.444   4.897  2.0398  0.5534 -1.7392
  150POPC  H18T 3043   2.461   3.580   4.806  0.5029  1.3947  1.3780
  150POPC   C33 3044   1.826   3.910   6.002 -0.1897  0.4532 -0.3038
  150POPC   H3X 3045   1.930   3.879   5.977 -1.2294 -3.6556 -0.1896
  150POPC   H3Y 3046   1.796   3.987   5.928 -2.3696 -0.0449  0.0012
  150POPC   C34 3047   1.745   3.783   5.986 -0.5726  0.5333  0.2285
  150POPC   H4X 3048   1.637   3.786   6.012 -0.7150  1.8689 -0.4368
  150POPC   H4Y 3049   1.788   3.714   6.062 -1.3582 -0.3803 -0.1322
  150POPC   C35 3050   1.767   3.718   5.845  0.8135 -0.2636 -0.8787
  150POPC   H5X 3051   1.723   3.616   5.847 -0.7039  0.3567  1.1936
  150POPC   H5Y 3052   1.876   3.718   5.829  1.0837  2.0124  0.4540
  150POPC   C36 3053   1.718   3.813   5.736  0.3249  1.0061  0.3673
  150POPC   H6X 3054   1.762   3.914   5.744  0.3508  0.9399  1.2584
  150POPC   H6Y 3055   1.612   3.836   5.759  0.5217  1.4147  0.8985
  150POPC   C37 3056   1.735   3.754   5.597 -0.2462 -0.5059 -0.1123
  150POPC   H7X 3057   1.658   3.674   5.594  0.0634 -0.8100 -0.0832
  150POPC   H7Y 3058   1.830   3.696   5.593 -0.4645 -0.9814  1.3179
  150POPC   C38 3059   1.707   3.860   5.492  0.2192 -0.0283  0.3437
  150POPC   H8X 3060   1.784   3.940   5.497  1.8143 -1.5463  1.0445
  150POPC   H8Y 3061   1.609   3.911   5.507 -1.7071 -2.2952 -3.2532
  150POPC   C39 3062   1.694   3.798   5.353  0.3377  0.3923 -0.5770
  150POPC   H9X 3063   1.619   3.717   5.369  0.6814 -0.5953 -3.4293
  150POPC   H9Y 3064   1.786   3.740   5.331 -2.1146 -3.0608 -2.8792
  150POPC  C310 3065   1.663   3.896   5.241 -0.2655  0.8044  0.0424
  150POPC  H10X 3066   1.754   3.957   5.223 -0.2321  0.2690 -1.8021
  150POPC  H10Y 3067   1.569   3.950   5.263 -0.5413  1.2446 -2.0318
  150POPC  C311 3068   1.634   3.817   5.115 -0.0367  0.4301 -0.3785
  150POPC  H11X 3069   1.674   3.715   5.129 -2.3311 -0.5597 -0.5540
  150POPC  H11Y 3070   1.664   3.874   5.024 -1.6075  1.1384 -0.4860
  150POPC  C312 3071   1.480   3.790   5.105  0.1708  0.2629  0.2220
  150POPC  H12X 3072   1.425   3.884   5.126 -3.8563 -2.1104  1.3832
  150POPC  H12Y 3073   1.440   3.722   5.184  2.1969  1.8112  2.7540
  150POPC  C313 3074   1.438   3.739   4.965  0.1533 -0.2870 -0.1741
  150POPC  H13X 3075   1.483   3.640   4.943 -1.1443 -0.1784 -3.9339
  150POPC  H13Y 3076   1.469   3.801   4.879  0.5109  0.0725  0.2107
  150POPC  C314 3077   1.288   3.721   4.959 -0.0925  0.3443  0.1465
  150POPC  H14X 3078   1.233   3.807   5.003 -1.8970  0.3697 -1.9780
  150POPC  H14Y 3079   1.269   3.628   5.017 -1.7625 -0.9963 -2.3504
  150POPC  C315 3080   1.233   3.688   4.826  0.3160 -0.0380  0.1278
  150POPC  H15X 3081   1.270   3.593   4.782  0.1014 -0.1499  0.1898
  150POPC  H15Y 3082   1.284   3.754   4.753  0.1568 -0.7085 -0.6025
  150POPC  C316 3083   1.081   3.697   4.822  0.3997 -0.5669  0.0937
  150POPC  H16X 3084   1.038   3.666   4.724  0.6431  1.1330 -0.5995
  150POPC  H16Y 3085   1.051   3.802   4.843  1.4422  0.4521 -2.9405
  150POPC  H16Z 3086   1.053   3.623   4.899  3.3468 -2.1448 -0.1854
  151POPC     N 3087   0.146   4.542   6.508  0.4418 -0.1869  0.6150
  151POPC   C12 3088   0.113   4.533   6.358  0.5477  0.3362  0.1928
  151POPC  H12A 3089   0.159   4.622   6.318 -1.0277  1.5141  0.9053
  151POPC  H12B 3090   0.007   4.533   6.338  0.7900  0.8379 -1.2153
  151POPC   C13 3091   0.295   4.537   6.533  0.4357 -0.0350  0.4066
  151POPC  H13A 3092   0.344   4.618   6.481 -0.3530  1.4282  1.8542
  151POPC  H13B 3093   0.314   4.542   6.639 -2.9575 -1.0116  1.1706
  151POPC  H13C 3094   0.335   4.446   6.490  0.0169 -0.3171  0.6117
  151POPC   C14 3095   0.097   4.668   6.565  0.1012 -0.3446 -0.4838
  151POPC  H14A 3096   0.139   4.680   6.664  1.5821  1.3646 -1.2475
  151POPC  H14B 3097   0.141   4.746   6.504 -0.3822 -0.2281 -0.6837
  151POPC  H14C 3098  -0.010   4.675   6.558 -0.0364 -1.1200  0.5625
  151POPC   C15 3099   0.080   4.428   6.577 -0.5190 -0.0783  0.2955
  151POPC  H15A 3100  -0.026   4.448   6.572 -0.3754  0.4371 -1.1418
  151POPC  H15B 3101   0.101   4.416   6.682 -0.1403 -1.3751  0.0894
  151POPC  H15C 3102   0.091   4.333   6.526  0.0338  0.1935 -0.1022
  151POPC   C11 3103   0.159   4.397   6.294  0.2002 -0.3184  0.1269
  151POPC  H11A 3104   0.259   4.372   6.334  0.8285  1.2024 -0.4094
  151POPC  H11B 3105   0.167   4.409   6.184 -0.2371 -0.5650  0.0671
  151POPC     P 3106   6.366   4.273   6.277 -0.1362  0.0355  0.2487
  151POPC   O13 3107   6.274   4.388   6.317 -0.5756 -0.4605  0.2195
  151POPC   O14 3108   6.323   4.138   6.318  0.0013  0.0000  0.2147
  151POPC   O12 3109   0.069   4.301   6.325 -0.1049 -0.0991 -0.6553
  151POPC   O11 3110   6.380   4.265   6.124 -0.5259  0.0285  0.6190
  151POPC    C1 3111   6.401   4.145   6.042 -0.3334  0.3422 -0.6689
  151POPC    HA 3112   6.301   4.101   6.021 -0.1564 -0.5297  0.2308
  151POPC    HB 3113   6.469   4.073   6.092 -0.7843 -0.2997 -0.9587
  151POPC    C2 3114   0.026   4.188   5.903  0.1239  0.3063 -0.4900
  151POPC    HS 3115   0.009   4.120   5.817  1.4031 -1.4165  0.5559
  151POPC   O21 3116   0.171   4.200   5.931  0.4425  0.3960 -0.1498
  151POPC   C21 3117   0.254   4.122   5.871  0.1703 -0.2557 -0.5403
  151POPC   O22 3118   0.223   4.033   5.793  0.3692  0.4334 -0.0375
  151POPC   C22 3119   0.391   4.159   5.917  0.5568 -0.6658  0.6934
  151POPC   H2R 3120   0.429   4.103   6.006 -0.6425 -1.6647  0.6009
  151POPC   H2S 3121   0.384   4.267   5.939 -2.2961 -0.2487 -1.6512
  151POPC    C3 3122   6.412   4.325   5.859  0.2135 -0.7664 -0.5123
  151POPC    HX 3123   6.439   4.398   5.939 -0.2459  0.2302 -1.2455
  151POPC    HY 3124   6.303   4.309   5.851 -0.4821  3.4203 -1.7069
  151POPC   O31 3125   0.024   4.361   5.735  0.0775  0.0417  0.2177
  151POPC   C31 3126   0.136   4.425   5.734 -0.0610 -0.3650  0.1976
  151POPC   O32 3127   0.202   4.450   5.837 -0.5729 -0.0163  0.4361
  151POPC   C32 3128   0.157   4.478   5.594 -0.7572  0.0006  0.5185
  151POPC   H2X 3129   0.064   4.510   5.543 -0.9133 -0.1532  0.7080
  151POPC   H2Y 3130   0.204   4.401   5.529 -0.9600  0.5488 -0.2953
  151POPC   C23 3131   0.491   4.142   5.799 -0.5303 -0.2361  0.4807
  151POPC   H3R 3132   0.474   4.035   5.771 -1.5061  0.0005  0.1386
  151POPC   H3S 3133   0.590   4.164   5.844 -1.4803  0.3336  2.3997
  151POPC   C24 3134   0.468   4.238   5.673  0.5201  0.5882 -0.5096
  151POPC   H4R 3135   0.443   4.340   5.712 -0.6836  0.3781 -0.6777
  151POPC   H4S 3136   0.385   4.205   5.607  1.3311 -2.4742 -0.1664
  151POPC   C25 3137   0.585   4.256   5.586  0.5640 -0.1596  0.5023
  151POPC   H5R 3138   0.629   4.158   5.560 -0.6164 -0.9569  1.4117
  151POPC   H5S 3139   0.665   4.313   5.638  1.6752 -1.2382  0.0257
  151POPC   C26 3140   0.550   4.337   5.460  0.2306 -0.7829  0.6876
  151POPC   H6R 3141   0.515   4.436   5.494 -0.4692 -0.5085 -0.7628
  151POPC   H6S 3142   0.465   4.293   5.405  1.2510 -2.8670  0.6739
  151POPC   C27 3143   0.665   4.362   5.372 -0.1557  0.8078 -0.5063
  151POPC   H7R 3144   0.670   4.281   5.295  0.5088 -1.1887  1.5305
  151POPC   H7S 3145   0.763   4.365   5.423 -0.0666 -0.8071 -0.5353
  151POPC   C28 3146   0.647   4.497   5.298 -0.5299 -0.4664 -0.4247
  151POPC   H8R 3147   0.683   4.568   5.375 -0.0653 -1.9642  0.7930
  151POPC   H8S 3148   0.539   4.501   5.272 -0.4906 -2.0384 -0.9389
  151POPC   C29 3149   0.741   4.511   5.181  0.1585 -0.0473  0.7809
  151POPC   H91 3150   0.848   4.528   5.199  0.4435 -1.4256  0.4912
  151POPC  C210 3151   0.689   4.526   5.062 -0.5554  0.1757  1.2295
  151POPC  H101 3152   0.750   4.550   4.974 -0.1800  0.0554  1.4569
  151POPC  C211 3153   0.547   4.537   5.025  0.6924  0.4543  0.1743
  151POPC  H11R 3154   0.525   4.645   5.035 -1.3095  0.0173  1.1199
  151POPC  H11S 3155   0.471   4.479   5.082  0.2061 -0.0520 -0.9491
  151POPC  C212 3156   0.516   4.507   4.876 -0.8359 -0.6925  0.5465
  151POPC  H12R 3157   0.529   4.399   4.855 -1.6425 -0.2721 -2.6980
  151POPC  H12S 3158   0.584   4.560   4.806 -0.5737  1.2887  2.2307
  151POPC  C213 3159   0.374   4.554   4.841  1.2346  0.1761 -0.3633
  151POPC  H13R 3160   0.294   4.492   4.886  2.7728 -0.0748  2.1869
  151POPC  H13S 3161   0.354   4.537   4.733  1.8367 -1.5960 -0.2369
  151POPC  C214 3162   0.335   4.698   4.871 -0.2362  0.4145 -0.3570
  151POPC  H14R 3163   0.417   4.769   4.845 -0.8919  1.5233  0.5254
  151POPC  H14S 3164   0.329   4.710   4.981  0.2516 -1.6184 -0.0515
  151POPC  C215 3165   0.206   4.750   4.816  0.6112 -0.5819 -0.1492
  151POPC  H15R 3166   0.186   4.743   4.707 -1.1082  0.4420  0.0456
  151POPC  H15S 3167   0.193   4.860   4.830 -0.9058 -0.6483 -0.8086
  151POPC  C216 3168   0.088   4.680   4.893  0.7374 -0.6059 -0.6034
  151POPC  H16R 3169   0.117   4.668   5.000  1.5499  2.6619 -0.3489
  151POPC  H16S 3170   0.076   4.583   4.840 -1.0528  0.5877 -2.5031
  151POPC  C217 3171   6.402   4.751   4.885  0.7112 -0.2894  0.9523
  151POPC  H17R 3172   6.434   4.858   4.892  1.8293 -0.4343 -1.0917
  151POPC  H17S 3173   6.324   4.724   4.959  1.1158  0.3517  1.6283
  151POPC  C218 3174   6.334   4.728   4.745  0.0665 -0.1675 -0.0020
  151POPC  H18R 3175   6.328   4.619   4.723 -1.2041  0.2508 -2.0523
  151POPC  H18S 3176   6.395   4.771   4.663  0.8819 -0.7480  0.2872
  151POPC  H18T 3177   6.232   4.772   4.744  0.6621  1.5219 -3.8598
  151POPC   C33 3178   0.244   4.607   5.600  0.4887 -0.3993  0.3095
  151POPC   H3X 3179   0.339   4.572   5.644 -1.5618 -3.6933  2.5886
  151POPC   H3Y 3180   0.182   4.671   5.667  0.5103 -0.2785  0.2149
  151POPC   C34 3181   0.274   4.669   5.465 -0.0991 -0.1377  0.6928
  151POPC   H4X 3182   0.181   4.718   5.428  0.7486  1.8930  1.1124
  151POPC   H4Y 3183   0.301   4.585   5.396 -1.1477  0.3361 -0.3324
  151POPC   C35 3184   0.382   4.769   5.462 -0.5148  1.0786 -0.1990
  151POPC   H5X 3185   0.470   4.716   5.504 -0.9283 -0.3907 -1.1172
  151POPC   H5Y 3186   0.358   4.836   5.547 -0.5619  2.9171 -1.6071
  151POPC   C36 3187   0.415   4.849   5.336  0.0468 -0.0679 -0.3694
  151POPC   H6X 3188   0.458   4.778   5.262  1.9598 -0.3089  0.9116
  151POPC   H6Y 3189   0.475   4.941   5.347 -0.9684  0.4766  0.9590
  151POPC   C37 3190   0.290   4.900   5.263  0.2450  0.5112  0.0218
  151POPC   H7X 3191   0.225   4.937   5.345 -0.5156 -0.8082  0.0474
  151POPC   H7Y 3192   0.227   4.815   5.230  0.3853 -0.2154  1.5477
  151POPC   C38 3193   0.317   4.991   5.143  0.6009  0.8871  0.0999
  151POPC   H8X 3194   0.223   5.010   5.087 -1.2434 -5.2164  0.4603
  151POPC   H8Y 3195   0.388   4.933   5.080  1.5644  2.5968 -0.4687
  151POPC   C39 3196   0.392   5.120   5.169  0.3672  0.2561  0.1785
  151POPC   H9X 3197   0.382   5.185   5.079  0.0485  1.9562  1.4030
  151POPC   H9Y 3198   0.500   5.099   5.183  0.4861  1.8412  2.0203
  151POPC  C310 3199   0.331   5.199   5.288  0.1786  0.6028  0.6697
  151POPC  H10X 3200   0.363   5.134   5.372 -0.4654  0.5503  0.8828
  151POPC  H10Y 3201   0.220   5.198   5.297  0.2184  1.8158  1.6599
  151POPC  C311 3202   0.376   5.347   5.268 -0.4230  1.0366  0.2976
  151POPC  H11X 3203   0.313   5.400   5.193  1.7530  2.4296 -0.6692
  151POPC  H11Y 3204   0.482   5.346   5.234 -0.5443  0.0271 -0.0806
  151POPC  C312 3205   0.373   5.428   5.400 -0.2439  0.3616 -0.0992
  151POPC  H12X 3206   0.435   5.376   5.477 -0.9003  0.0959  0.2640
  151POPC  H12Y 3207   0.272   5.418   5.445 -0.4204  0.2166 -0.5271
  151POPC  C313 3208   0.423   5.566   5.376  0.0350 -0.4355  0.3360
  151POPC  H13X 3209   0.367   5.592   5.284  2.0192 -0.3528 -0.9121
  151POPC  H13Y 3210   0.529   5.558   5.342 -0.7454 -2.9095 -1.8346
  151POPC  C314 3211   0.387   5.678   5.474 -0.0902 -0.2536  0.1806
  151POPC  H14X 3212   0.408   5.644   5.578  1.0319  0.3878  0.1806
  151POPC  H14Y 3213   0.279   5.700   5.458  0.2508  1.4542  0.0910
  151POPC  C315 3214   0.452   5.813   5.452 -0.2867 -0.2430  0.8400
  151POPC  H15X 3215   0.413   5.846   5.353  3.7590 -1.2331 -1.2961
  151POPC  H15Y 3216   0.562   5.800   5.441 -0.2637  1.5916 -2.6016
  151POPC  C316 3217   0.436   5.916   5.564  0.6237 -0.3033  0.1880
  151POPC  H16X 3218   0.328   5.941   5.570  0.8958  1.3324 -0.8855
  151POPC  H16Y 3219   0.487   6.012   5.540 -0.4491 -0.1168 -1.4928
  151POPC  H16Z 3220   0.492   5.878   5.652  3.6385  0.5081 -1.2099
  152POPC     N 3221   1.565   2.239   6.895 -0.0955 -0.2376 -0.0383
  152POPC   C12 3222   1.559   2.298   6.748 -0.2336  0.0673 -0.1219
  152POPC  H12A 3223   1.523   2.400   6.758  1.8401  1.0461 -1.7674
  152POPC  H12B 3224   1.484   2.250   6.688 -0.2466  2.1095 -1.8813
  152POPC   C13 3225   1.640   2.109   6.898  0.5159  0.5508  0.6829
  152POPC  H13A 3226   1.573   2.031   6.864  0.3359  1.4355 -1.1259
  152POPC  H13B 3227   1.724   2.120   6.831 -0.1542  1.7139 -0.0109
  152POPC  H13C 3228   1.659   2.085   7.001 -3.8712  0.6646  1.7484
  152POPC   C14 3229   1.633   2.333   6.989 -0.2088  0.4210 -0.8559
  152POPC  H14A 3230   1.622   2.288   7.087 -0.1596  0.1277 -0.9831
  152POPC  H14B 3231   1.734   2.340   6.952  1.3911 -2.2924  2.4745
  152POPC  H14C 3232   1.584   2.429   6.988 -1.4426 -0.1845 -0.4684
  152POPC   C15 3233   1.424   2.219   6.938  0.0287  0.2023  0.0086
  152POPC  H15A 3234   1.360   2.300   6.909  0.3473  0.4856  0.0930
  152POPC  H15B 3235   1.417   2.205   7.045  0.6472  3.3775  0.5508
  152POPC  H15C 3236   1.378   2.138   6.884  3.2864 -1.3925 -0.6761
  152POPC   C11 3237   1.691   2.309   6.667 -0.4153  0.2470 -0.7142
  152POPC  H11A 3238   1.763   2.342   6.745  1.2294 -2.1180 -1.1357
  152POPC  H11B 3239   1.684   2.383   6.584 -2.5475 -1.1266 -1.8583
  152POPC     P 3240   1.691   2.135   6.468 -0.1330  0.0819 -0.2503
  152POPC   O13 3241   1.543   2.140   6.449 -0.5751 -0.0399 -0.0467
  152POPC   O14 3242   1.764   2.007   6.443 -0.5320  0.5186  0.3577
  152POPC   O12 3243   1.722   2.180   6.614  0.2806  0.0072 -0.1064
  152POPC   O11 3244   1.771   2.236   6.379 -0.4020 -0.6432  0.1577
  152POPC    C1 3245   1.905   2.252   6.418 -0.0684 -0.1201  0.0579
  152POPC    HA 3246   1.960   2.157   6.439  1.3171  0.2430 -1.6906
  152POPC    HB 3247   1.918   2.329   6.497  0.6131  0.4858 -0.6373
  152POPC    C2 3248   1.981   2.327   6.306  0.9101  0.6476  0.1685
  152POPC    HS 3249   2.090   2.333   6.327  1.5699 -0.4630 -2.5510
  152POPC   O21 3250   1.912   2.456   6.279 -0.0624  0.2510  0.4015
  152POPC   C21 3251   1.919   2.551   6.363 -0.3257 -0.1999  0.1794
  152POPC   O22 3252   2.001   2.552   6.452  0.0750 -0.5809 -0.1109
  152POPC   C22 3253   1.804   2.649   6.352  0.3332 -0.5511  0.4491
  152POPC   H2R 3254   1.802   2.741   6.414 -1.4899 -0.0625 -0.2711
  152POPC   H2S 3255   1.710   2.593   6.374  0.2837 -1.6911 -2.2875
  152POPC    C3 3256   1.958   2.250   6.169  0.2813 -0.5008 -0.8770
  152POPC    HX 3257   1.848   2.244   6.156  0.0730 -2.6644  1.0772
  152POPC    HY 3258   1.998   2.146   6.168 -1.9618 -1.4199 -2.3793
  152POPC   O31 3259   2.006   2.324   6.057 -0.3803 -0.7892 -0.2749
  152POPC   C31 3260   2.139   2.310   6.027  0.1240 -0.4210 -0.1567
  152POPC   O32 3261   2.220   2.254   6.096  0.1066  0.0838  0.2037
  152POPC   C32 3262   2.172   2.382   5.898  0.7296  0.2624  0.1344
  152POPC   H2X 3263   2.141   2.488   5.908  0.4977  0.0942  1.3840
  152POPC   H2Y 3264   2.102   2.330   5.829  0.2744  0.1363  0.6875
  152POPC   C23 3265   1.790   2.704   6.199  0.0590  0.1553  0.1787
  152POPC   H3R 3266   1.707   2.777   6.208  0.1267  0.2569 -0.0364
  152POPC   H3S 3267   1.761   2.635   6.117  1.1052  1.1007 -1.0261
  152POPC   C24 3268   1.917   2.789   6.170  0.2178 -0.2817 -0.6797
  152POPC   H4R 3269   2.011   2.732   6.188 -0.4141 -1.2532 -0.4072
  152POPC   H4S 3270   1.918   2.869   6.248 -2.4201  0.2449 -1.1160
  152POPC   C25 3271   1.916   2.846   6.027 -0.8179  0.3244  0.2307
  152POPC   H5R 3272   2.006   2.908   6.010 -1.1361  0.7439  0.0611
  152POPC   H5S 3273   1.825   2.908   6.010 -1.4130 -0.8993 -1.2522
  152POPC   C26 3274   1.898   2.741   5.909 -0.2016 -0.0313 -0.6104
  152POPC   H6R 3275   1.806   2.679   5.910 -0.1931 -0.0421 -0.4570
  152POPC   H6S 3276   1.995   2.688   5.915  0.3659  1.0518  0.2113
  152POPC   C27 3277   1.914   2.816   5.777  0.4911 -0.2647  0.1549
  152POPC   H7R 3278   2.008   2.874   5.760  1.2668 -1.1451  1.2647
  152POPC   H7S 3279   1.835   2.894   5.776  1.6121  0.9121  0.1353
  152POPC   C28 3280   1.864   2.727   5.664 -0.1634 -0.6850  0.3668
  152POPC   H8R 3281   1.869   2.777   5.565  0.3405 -0.1763  0.6425
  152POPC   H8S 3282   1.756   2.700   5.666 -0.7449  1.5128  1.4221
  152POPC   C29 3283   1.958   2.608   5.659 -0.1089 -0.0399 -0.1738
  152POPC   H91 3284   1.940   2.542   5.745  1.3996  0.9478  0.9388
  152POPC  C210 3285   2.059   2.593   5.577 -0.2982 -0.0984  0.0446
  152POPC  H101 3286   2.113   2.496   5.583  0.9178  0.5964  0.9847
  152POPC  C211 3287   2.110   2.689   5.478 -0.0798 -0.2998 -0.3397
  152POPC  H11R 3288   2.204   2.733   5.518  0.0979 -0.0357 -1.0255
  152POPC  H11S 3289   2.031   2.758   5.442 -4.2294 -3.0066  2.7178
  152POPC  C212 3290   2.158   2.608   5.360  0.0923 -0.6208 -0.8907
  152POPC  H12R 3291   2.080   2.540   5.318 -2.2506 -0.2573  2.4722
  152POPC  H12S 3292   2.233   2.533   5.393  1.9738  1.2540 -0.7002
  152POPC  C213 3293   2.233   2.682   5.255  0.0454 -0.1618  0.1933
  152POPC  H13R 3294   2.292   2.760   5.307  0.1295 -1.1244  1.6099
  152POPC  H13S 3295   2.169   2.740   5.185  2.7786  2.5601 -0.2486
  152POPC  C214 3296   2.339   2.596   5.181 -0.3751  0.5045  0.0550
  152POPC  H14R 3297   2.408   2.554   5.257  0.2795  2.3817  0.5511
  152POPC  H14S 3298   2.410   2.658   5.123  0.8416  0.3686  1.3415
  152POPC  C215 3299   2.291   2.475   5.102 -0.9937  0.6928  0.6441
  152POPC  H15R 3300   2.218   2.493   5.020  0.0251 -1.9202 -0.9447
  152POPC  H15S 3301   2.231   2.431   5.185 -0.2950 -0.7909  0.3943
  152POPC  C216 3302   2.408   2.381   5.068 -0.8541 -0.9855 -0.2884
  152POPC  H16R 3303   2.465   2.366   5.163  0.6935 -1.1915 -1.2147
  152POPC  H16S 3304   2.470   2.443   5.000 -1.9020  1.4955  0.9174
  152POPC  C217 3305   2.365   2.254   5.011  0.7454  0.1999  1.0840
  152POPC  H17R 3306   2.297   2.287   4.929  1.7416  4.3736  1.7145
  152POPC  H17S 3307   2.303   2.199   5.085 -2.1372  0.2595 -1.1166
  152POPC  C218 3308   2.475   2.166   4.943 -0.2287  0.2172  0.4836
  152POPC  H18R 3309   2.497   2.202   4.840 -1.1214 -1.6009 -0.3777
  152POPC  H18S 3310   2.443   2.060   4.948 -0.4118  0.2928  1.0025
  152POPC  H18T 3311   2.569   2.168   5.002 -0.8586  2.5728  1.5403
  152POPC   C33 3312   2.320   2.354   5.868 -0.4109 -0.4995  0.6075
  152POPC   H3X 3313   2.334   2.245   5.880 -0.8830 -0.5772  0.4943
  152POPC   H3Y 3314   2.393   2.410   5.930 -1.0010  1.1611 -0.1350
  152POPC   C34 3315   2.346   2.399   5.726  0.0388  0.3409 -0.1519
  152POPC   H4X 3316   2.317   2.503   5.703  2.1587  1.0872  0.3645
  152POPC   H4Y 3317   2.280   2.337   5.662  0.6535 -0.2930 -0.1990
  152POPC   C35 3318   2.494   2.384   5.687  0.4040  0.6297 -0.7786
  152POPC   H5X 3319   2.526   2.278   5.680  2.3753  1.2234 -1.4316
  152POPC   H5Y 3320   2.558   2.440   5.758  0.4343  1.7272 -1.6423
  152POPC   C36 3321   2.513   2.447   5.545  0.2089 -0.2059  0.4926
  152POPC   H6X 3322   2.461   2.543   5.524  2.2670  0.8824  0.1688
  152POPC   H6Y 3323   2.472   2.377   5.469 -0.2676  0.4800  0.1071
  152POPC   C37 3324   2.665   2.462   5.510 -0.3823  0.2193 -0.7629
  152POPC   H7X 3325   2.731   2.489   5.595  0.8215 -3.0011 -0.5431
  152POPC   H7Y 3326   2.667   2.542   5.433 -1.6620 -0.1039 -1.1534
  152POPC   C38 3327   2.728   2.329   5.472  0.3755  0.2838 -0.4568
  152POPC   H8X 3328   2.644   2.267   5.433 -2.4927  2.5729  1.5665
  152POPC   H8Y 3329   2.769   2.287   5.566 -1.5930 -0.3516  0.1687
  152POPC   C39 3330   2.849   2.348   5.382 -0.0438 -0.2792  0.0876
  152POPC   H9X 3331   2.814   2.415   5.301 -1.8269 -3.4554 -1.9858
  152POPC   H9Y 3332   2.875   2.254   5.328 -0.0869 -0.9367  1.1832
  152POPC  C310 3333   2.975   2.402   5.448  0.3239 -0.4633  0.1720
  152POPC  H10X 3334   3.020   2.333   5.522  0.5236  0.8559  1.3176
  152POPC  H10Y 3335   2.954   2.496   5.503  2.9515  0.2776  0.0538
  152POPC  C311 3336   3.088   2.417   5.349 -0.4551 -0.0665 -0.2562
  152POPC  H11X 3337   3.169   2.465   5.406 -1.4362  1.8438 -0.4027
  152POPC  H11Y 3338   3.066   2.457   5.248 -0.1214 -0.2974 -0.4209
  152POPC  C312 3339   3.155   2.284   5.308 -0.4652  0.3305  0.7373
  152POPC  H12X 3340   3.079   2.224   5.255  1.3346 -0.7901 -0.7112
  152POPC  H12Y 3341   3.193   2.236   5.401 -1.5457  0.2345  1.1426
  152POPC  C313 3342   3.273   2.295   5.207  0.9238 -0.0622  0.3185
  152POPC  H13X 3343   3.362   2.348   5.247  1.5354 -0.8277 -0.0054
  152POPC  H13Y 3344   3.240   2.364   5.126  0.4085 -0.4896  0.1586
  152POPC  C314 3345   3.332   2.165   5.149  0.5317  0.1085 -0.1195
  152POPC  H14X 3346   3.403   2.198   5.071 -2.3982 -1.1724 -3.5949
  152POPC  H14Y 3347   3.246   2.119   5.095  1.6442  0.4360 -2.2770
  152POPC  C315 3348   3.385   2.062   5.248 -0.4724  0.3547  0.8672
  152POPC  H15X 3349   3.440   1.988   5.185 -1.3709  0.5067 -0.1192
  152POPC  H15Y 3350   3.301   2.008   5.296 -1.0603  1.8102  1.5294
  152POPC  C316 3351   3.481   2.114   5.360  0.2815 -0.1036  0.3005
  152POPC  H16X 3352   3.428   2.169   5.441  0.9008  0.9357  0.0055
  152POPC  H16Y 3353   3.565   2.172   5.316  3.6703 -3.1115  2.2532
  152POPC  H16Z 3354   3.534   2.024   5.397 -0.6217 -1.5472 -1.7150
  153POPC     N 3355   0.412   0.972   6.947  0.0331 -0.2497  0.4747
  153POPC   C12 3356   0.465   1.035   6.826  0.6324 -1.2353  0.5815
  153POPC  H12A 3357   0.489   0.962   6.750  1.4446  0.1567 -0.5351
  153POPC  H12B 3358   0.558   1.085   6.850  0.5464 -0.0443 -1.3919
  153POPC   C13 3359   0.505   0.860   6.999  0.0417  0.0507 -0.1667
  153POPC  H13A 3360   0.604   0.894   7.026 -0.6927  1.4124  0.9239
  153POPC  H13B 3361   0.459   0.818   7.088 -0.7910  3.2170  1.0193
  153POPC  H13C 3362   0.505   0.784   6.922 -1.5977 -0.1194 -0.0295
  153POPC   C14 3363   0.370   1.059   7.065 -0.1024  0.3746  0.5563
  153POPC  H14A 3364   0.338   1.000   7.149  1.0062  1.4836  1.7824
  153POPC  H14B 3365   0.454   1.122   7.091  0.3559 -0.0411  0.1164
  153POPC  H14C 3366   0.291   1.126   7.035 -0.2035  0.6468  1.4255
  153POPC   C15 3367   0.279   0.906   6.909 -0.4038 -0.2340  0.4141
  153POPC  H15A 3368   0.292   0.822   6.842  0.1447 -0.9424  1.3755
  153POPC  H15B 3369   0.208   0.981   6.878 -0.5092 -0.5153 -0.0470
  153POPC  H15C 3370   0.243   0.864   7.002 -1.1607  1.5586  0.9725
  153POPC   C11 3371   0.378   1.151   6.769  0.3848 -0.5597 -0.2054
  153POPC  H11A 3372   0.278   1.115   6.737  0.1373 -1.1374  1.1194
  153POPC  H11B 3373   0.431   1.188   6.679 -1.4346 -2.0780 -2.0118
  153POPC     P 3374   0.314   1.393   6.813 -0.3851  0.1064 -0.2566
  153POPC   O13 3375   0.424   1.476   6.756 -0.1254  0.3470 -0.2224
  153POPC   O14 3376   0.230   1.458   6.914 -0.0594  0.0906  0.0136
  153POPC   O12 3377   0.363   1.252   6.866  0.9827  0.5845 -0.2795
  153POPC   O11 3378   0.211   1.344   6.699 -0.1101 -0.1862 -0.0594
  153POPC    C1 3379   0.211   1.414   6.573  0.1669 -0.1745 -0.2221
  153POPC    HA 3380   0.259   1.353   6.492  1.6020  0.8698 -0.2012
  153POPC    HB 3381   0.273   1.506   6.572 -1.0163  0.6935  1.4319
  153POPC    C2 3382   0.061   1.449   6.545 -0.7035  0.1128  0.1280
  153POPC    HS 3383   0.005   1.471   6.638 -1.4819 -1.0688 -0.0468
  153POPC   O21 3384   0.004   1.334   6.487 -0.5089  0.1172 -0.0458
  153POPC   C21 3385   6.315   1.346   6.479  0.2337  0.0117 -0.4331
  153POPC   O22 3386   6.246   1.430   6.537  0.0389 -0.0669  0.1590
  153POPC   C22 3387   6.277   1.243   6.371 -0.2876  0.3588  0.8587
  153POPC   H2R 3388   6.285   1.139   6.408  1.7668 -0.2803 -1.1393
  153POPC   H2S 3389   6.348   1.240   6.285 -0.8960  1.1725  0.3179
  153POPC    C3 3390   0.045   1.566   6.444 -0.1494 -0.6134 -0.3158
  153POPC    HX 3391   0.094   1.649   6.499  0.1394 -0.7871 -0.3052
  153POPC    HY 3392  -0.062   1.589   6.430  0.2948  2.3777  0.6076
  153POPC   O31 3393   0.105   1.534   6.318  0.1477  0.0401 -0.2316
  153POPC   C31 3394   0.148   1.641   6.250 -0.7123  0.7388 -0.1213
  153POPC   O32 3395   0.170   1.752   6.297 -0.6672  0.0352  0.5664
  153POPC   C32 3396   0.187   1.584   6.116 -0.6612 -0.2999  0.0076
  153POPC   H2X 3397   0.249   1.493   6.133  0.0152  0.3354  1.0246
  153POPC   H2Y 3398   0.258   1.665   6.091 -1.4159  0.7252  1.0691
  153POPC   C23 3399   6.146   1.287   6.306 -0.2815  0.8442  0.1666
  153POPC   H3R 3400   6.078   1.344   6.373  0.4774  2.0941 -0.0989
  153POPC   H3S 3401   6.095   1.193   6.275 -1.6288 -0.2025  4.6936
  153POPC   C24 3402   6.185   1.371   6.190 -0.3829  0.2854  0.2639
  153POPC   H4R 3403   6.263   1.316   6.133 -2.5093 -0.9831 -1.5867
  153POPC   H4S 3404   6.233   1.461   6.233  1.2725 -0.2780 -0.3344
  153POPC   C25 3405   6.058   1.378   6.096 -0.1332  0.5201 -0.0177
  153POPC   H5R 3406   5.975   1.400   6.166 -0.6959  0.2307 -0.5819
  153POPC   H5S 3407   6.044   1.276   6.053 -1.6162  0.2630  0.9865
  153POPC   C26 3408   6.069   1.492   5.987 -0.1484  0.5784 -0.5790
  153POPC   H6R 3409   6.156   1.462   5.925 -0.2713 -1.2358  0.0707
  153POPC   H6S 3410   6.091   1.593   6.027  0.3353 -0.3947  1.7744
  153POPC   C27 3411   5.938   1.486   5.907  0.9477 -0.0241  0.7055
  153POPC   H7R 3412   5.852   1.491   5.977  0.7475  0.3776  0.4353
  153POPC   H7S 3413   5.935   1.394   5.845  2.4663  0.4444 -0.1173
  153POPC   C28 3414   5.908   1.596   5.799 -0.9537  0.2106 -0.3111
  153POPC   H8R 3415   5.910   1.699   5.839 -1.3086  0.6973 -1.4905
  153POPC   H8S 3416   5.806   1.580   5.760 -1.2297 -1.0243  0.8548
  153POPC   C29 3417   6.017   1.588   5.690 -0.1990  0.0359  0.6775
  153POPC   H91 3418   6.113   1.627   5.726  0.4686 -1.7619  0.9438
  153POPC  C210 3419   6.009   1.535   5.569  0.6027  0.1654  0.1349
  153POPC  H101 3420   6.103   1.528   5.512  0.0488 -0.1213 -0.7645
  153POPC  C211 3421   5.880   1.489   5.503 -0.7677 -0.1163 -0.3594
  153POPC  H11R 3422   5.802   1.485   5.582 -1.8620  1.6855 -1.2855
  153POPC  H11S 3423   5.894   1.386   5.463 -0.4464 -0.7608  1.3393
  153POPC  C212 3424   5.842   1.591   5.401 -0.5845  0.0222 -0.0858
  153POPC  H12R 3425   5.828   1.693   5.442  0.6388 -0.2805  1.1369
  153POPC  H12S 3426   5.744   1.558   5.359 -0.9580 -0.1440  0.9035
  153POPC  C213 3427   5.919   1.579   5.269  0.4184  0.0580 -1.0640
  153POPC  H13R 3428   5.970   1.480   5.265 -0.2791 -0.4194  0.7452
  153POPC  H13S 3429   6.002   1.650   5.290 -1.5659  1.7523  1.6440
  153POPC  C214 3430   5.841   1.625   5.153 -0.0745  0.3969  0.7063
  153POPC  H14R 3431   5.757   1.561   5.118 -0.6109 -0.3271  3.0659
  153POPC  H14S 3432   5.908   1.615   5.066  0.6121 -1.9069  1.4276
  153POPC  C215 3433   5.810   1.782   5.154  0.0020 -0.0849  0.1876
  153POPC  H15R 3434   5.905   1.839   5.160  1.3214 -2.0316 -1.2987
  153POPC  H15S 3435   5.751   1.812   5.244 -0.4145  2.9144 -0.9651
  153POPC  C216 3436   5.737   1.838   5.032  1.1944 -0.5382  0.5014
  153POPC  H16R 3437   5.633   1.801   5.014 -0.6974  3.9350  1.0297
  153POPC  H16S 3438   5.791   1.818   4.937 -2.8759  0.3259 -2.2429
  153POPC  C217 3439   5.696   1.984   5.050 -0.5139  0.6881  1.0394
  153POPC  H17R 3440   5.779   2.043   5.096  0.4480  0.0309  0.1895
  153POPC  H17S 3441   5.613   1.978   5.124 -0.9476 -0.6916  0.4688
  153POPC  C218 3442   5.645   2.050   4.922  0.1688  0.1537  0.6609
  153POPC  H18R 3443   5.633   2.157   4.948 -2.3126 -0.2733  1.5639
  153POPC  H18S 3444   5.539   2.018   4.907 -0.3312  2.1820 -0.4793
  153POPC  H18T 3445   5.704   2.027   4.831 -0.1915 -2.1957  0.9408
  153POPC   C33 3446   0.074   1.562   6.022  0.5350 -0.0097  0.5152
  153POPC   H3X 3447   0.033   1.659   5.985 -1.5612 -0.9038  0.3527
  153POPC   H3Y 3448  -0.011   1.517   6.077 -1.6507  1.5551 -1.3861
  153POPC   C34 3449   0.116   1.471   5.901 -0.1806 -0.3974 -0.1510
  153POPC   H4X 3450   0.179   1.387   5.939 -0.5845  0.2782  2.2198
  153POPC   H4Y 3451   0.180   1.521   5.826  1.0366 -0.3642  0.8729
  153POPC   C35 3452   6.437   1.418   5.829 -0.0188  0.1571  0.3364
  153POPC   H5X 3453   6.361   1.498   5.817 -0.1359 -0.0449 -0.3136
  153POPC   H5Y 3454   6.406   1.326   5.884 -0.5613 -0.3894 -0.8545
  153POPC   C36 3455   0.011   1.366   5.684  0.0625 -0.2341 -0.5198
  153POPC   H6X 3456   0.068   1.272   5.699 -0.3501 -0.5524 -0.9325
  153POPC   H6Y 3457   0.054   1.439   5.612 -0.5539  1.1204  0.4279
  153POPC   C37 3458   6.327   1.297   5.634  0.2465  0.0560 -0.3484
  153POPC   H7X 3459   6.245   1.369   5.654  2.7763  2.1947  3.4251
  153POPC   H7Y 3460   6.311   1.207   5.698  0.1099  0.4532  0.1807
  153POPC   C38 3461   6.350   1.258   5.481 -0.7569  0.7187 -0.4150
  153POPC   H8X 3462   6.434   1.186   5.478 -0.9674  0.3578  1.1409
  153POPC   H8Y 3463   6.388   1.352   5.435  1.8968  0.6038  1.3004
  153POPC   C39 3464   6.219   1.209   5.413  0.2846 -0.7370 -0.2161
  153POPC   H9X 3465   6.143   1.270   5.466  0.9629  0.4469 -0.5606
  153POPC   H9Y 3466   6.200   1.101   5.430 -0.9212 -0.5192 -0.1129
  153POPC  C310 3467   6.215   1.244   5.269 -0.5643  0.4952 -0.4909
  153POPC  H10X 3468   6.303   1.196   5.222 -0.9196 -1.1848  0.5051
  153POPC  H10Y 3469   6.220   1.353   5.247  0.1516  0.6211  0.2628
  153POPC  C311 3470   6.087   1.189   5.208  0.3128  0.0893 -0.0999
  153POPC  H11X 3471   6.014   1.271   5.220 -1.0177 -0.9132 -1.0615
  153POPC  H11Y 3472   6.041   1.103   5.261  0.1638 -1.3794 -2.4819
  153POPC  C312 3473   6.109   1.151   5.059  1.2160  0.1928 -0.1205
  153POPC  H12X 3474   6.168   1.057   5.061 -0.3849 -0.8561 -0.0099
  153POPC  H12Y 3475   6.165   1.235   5.014 -0.3522  2.5660  2.0249
  153POPC  C313 3476   5.975   1.140   4.988  0.4508 -0.0784  0.4566
  153POPC  H13X 3477   5.921   1.237   4.983 -0.7513 -0.7490 -0.1866
  153POPC  H13Y 3478   5.908   1.064   5.035  1.5308 -3.0335 -2.3741
  153POPC  C314 3479   5.991   1.085   4.840 -0.2380 -1.1897  0.2960
  153POPC  H14X 3480   5.908   1.140   4.791 -1.1240 -0.3963  2.5505
  153POPC  H14Y 3481   5.987   0.974   4.843  0.3916 -1.2539 -0.8505
  153POPC  C315 3482   6.119   1.129   4.765 -0.1417 -0.3087  0.4490
  153POPC  H15X 3483   6.202   1.093   4.829  0.0417 -1.2638 -0.3044
  153POPC  H15Y 3484   6.134   1.240   4.764  2.4502 -0.5991  0.5940
  153POPC  C316 3485   6.119   1.069   4.623  0.9427 -0.6535  0.0843
  153POPC  H16X 3486   6.027   1.104   4.572  1.7319  0.5371 -0.5493
  153POPC  H16Y 3487   6.118   0.958   4.622  0.7882 -0.7152 -3.0832
  153POPC  H16Z 3488   6.205   1.104   4.562  0.4362 -2.1258 -1.5462
  154POPC     N 3489   6.087   4.160   6.926 -0.6857  0.0856  0.8325
  154POPC   C12 3490   5.971   4.103   6.848  0.7371 -0.4899 -0.2778
  154POPC  H12A 3491   5.905   4.185   6.824  1.6463  0.4410  0.3194
  154POPC  H12B 3492   5.914   4.036   6.910  0.3227 -0.8588 -1.0492
  154POPC   C13 3493   6.170   4.054   7.000 -0.2797 -0.3020 -0.1059
  154POPC  H13A 3494   6.115   3.979   7.055 -1.1604 -0.5754 -1.3210
  154POPC  H13B 3495   6.228   4.000   6.927  0.5138 -1.7381  1.5213
  154POPC  H13C 3496   6.245   4.115   7.048 -1.0503  1.9328 -1.5713
  154POPC   C14 3497   6.171   4.238   6.842  0.2232  0.0752 -0.0780
  154POPC  H14A 3498   6.205   4.175   6.761 -2.2181  2.0409 -2.8319
  154POPC  H14B 3499   6.111   4.311   6.789  1.6794  1.6591  0.3550
  154POPC  H14C 3500   6.255   4.275   6.900 -0.4168  1.6211 -0.1042
  154POPC   C15 3501   6.036   4.248   7.032  0.8057 -0.7757  0.3162
  154POPC  H15A 3502   6.024   4.197   7.126  0.9510  1.4294  1.5974
  154POPC  H15B 3503   5.949   4.301   6.997 -0.5027 -2.9828  0.0556
  154POPC  H15C 3504   6.109   4.325   7.053 -0.8830  1.4982 -1.6238
  154POPC   C11 3505   6.004   4.023   6.724 -0.0685 -0.5252 -0.0726
  154POPC  H11A 3506   6.047   4.080   6.639 -0.3613  1.6208  1.1599
  154POPC  H11B 3507   5.910   3.983   6.680  0.5316  0.0918 -2.0235
  154POPC     P 3508   6.032   3.765   6.791 -0.1772  0.2347  0.1632
  154POPC   O13 3509   5.935   3.788   6.899  0.1749 -0.0101 -0.5805
  154POPC   O14 3510   6.149   3.684   6.828  0.0640 -0.2076  0.0006
  154POPC   O12 3511   6.086   3.910   6.753 -0.1517 -0.4692  0.2311
  154POPC   O11 3512   5.950   3.715   6.662 -0.1644 -0.1557 -0.2151
  154POPC    C1 3513   6.001   3.716   6.530  0.5389 -0.1850 -0.1316
  154POPC    HA 3514   6.051   3.620   6.505  0.9415 -0.8519  2.8812
  154POPC    HB 3515   6.074   3.799   6.516 -0.4428  0.9773  1.3564
  154POPC    C2 3516   5.886   3.727   6.423  0.0482  0.4536  0.4453
  154POPC    HS 3517   5.840   3.626   6.427  1.7962 -0.3823  0.5590
  154POPC   O21 3518   5.945   3.744   6.293 -0.4716  0.1794  0.1164
  154POPC   C21 3519   5.885   3.705   6.185 -0.1454  0.0327  0.4610
  154POPC   O22 3520   5.789   3.630   6.184  0.0887 -0.0172 -0.3930
  154POPC   C22 3521   5.957   3.759   6.063 -0.4323  0.3546 -0.0439
  154POPC   H2R 3522   6.044   3.820   6.097 -0.1217 -0.0716 -0.0603
  154POPC   H2S 3523   5.888   3.834   6.020 -0.3544  0.1932 -0.4627
  154POPC    C3 3524   5.781   3.838   6.461  0.0885  0.4182  0.2557
  154POPC    HX 3525   5.846   3.927   6.474  0.9526 -0.0707 -0.5426
  154POPC    HY 3526   5.743   3.819   6.564  3.5646  1.0696  1.7947
  154POPC   O31 3527   5.678   3.858   6.365  0.5320 -0.0656  0.3188
  154POPC   C31 3528   5.567   3.795   6.372  0.5116  0.6849 -0.5736
  154POPC   O32 3529   5.526   3.720   6.459 -0.9891 -0.0005  0.2053
  154POPC   C32 3530   5.476   3.815   6.243  0.4911  0.5527  0.0554
  154POPC   H2X 3531   5.392   3.884   6.268  1.9394  1.6952  2.0147
  154POPC   H2Y 3532   5.421   3.720   6.220 -0.7806  1.1955  0.3434
  154POPC   C23 3533   6.009   3.655   5.962  0.6515 -0.5350  0.0401
  154POPC   H3R 3534   5.918   3.627   5.905  0.8375  1.1067 -1.1489
  154POPC   H3S 3535   6.063   3.569   6.006  0.5337 -0.9693 -0.6531
  154POPC   C24 3536   6.104   3.723   5.856  0.0754 -0.1031  0.2140
  154POPC   H4R 3537   6.168   3.646   5.809 -0.9521 -0.9741  0.2188
  154POPC   H4S 3538   6.177   3.795   5.900  0.7046 -0.2447 -0.5728
  154POPC   C25 3539   6.026   3.786   5.746 -0.1008 -0.1590  0.3863
  154POPC   H5R 3540   5.951   3.859   5.782  0.4946  0.3078  0.6924
  154POPC   H5S 3541   5.963   3.703   5.708 -0.8668 -0.5482  2.4274
  154POPC   C26 3542   6.125   3.842   5.637  0.3990 -0.2798 -0.3127
  154POPC   H6R 3543   6.054   3.882   5.562 -0.5133 -0.9444  0.1726
  154POPC   H6S 3544   6.186   3.769   5.579  1.4706 -0.2451  0.7257
  154POPC   C27 3545   6.216   3.951   5.687 -0.3798  0.1149 -0.3926
  154POPC   H7R 3546   6.297   3.916   5.753  1.4736  1.0631 -2.0593
  154POPC   H7S 3547   6.150   4.015   5.750 -1.2488 -1.3078  0.1977
  154POPC   C28 3548   6.272   4.042   5.573 -0.2126 -0.2495 -0.2103
  154POPC   H8R 3549   6.299   4.145   5.604  3.0103 -1.6698  2.2512
  154POPC   H8S 3550   6.182   4.057   5.509 -0.0142 -0.1831 -0.4728
  154POPC   C29 3551   6.387   3.996   5.492  0.3460  0.2768  0.1444
  154POPC   H91 3552   6.480   4.010   5.550  0.3474  1.5155 -0.1311
  154POPC  C210 3553   6.387   3.939   5.368  0.1825 -0.2602  0.4030
  154POPC  H101 3554   6.483   3.896   5.334 -0.3428 -0.9217 -0.2632
  154POPC  C211 3555   6.266   3.915   5.282  0.0769  0.7008  0.7725
  154POPC  H11R 3556   6.177   3.923   5.348  0.3019 -1.7452  1.4733
  154POPC  H11S 3557   6.265   3.809   5.248 -5.4201  0.6714  0.2026
  154POPC  C212 3558   6.245   4.001   5.151  0.4579  0.4290 -0.1620
  154POPC  H12R 3559   6.297   3.937   5.076  2.4521 -0.9949  2.2186
  154POPC  H12S 3560   6.293   4.101   5.159 -1.1625  1.3368 -1.3123
  154POPC  C213 3561   6.097   4.016   5.116 -0.1562 -0.1214 -0.3717
  154POPC  H13R 3562   6.086   4.072   5.021  0.1616  0.8297  0.1373
  154POPC  H13S 3563   6.042   4.069   5.197 -0.2204 -1.1020  0.2468
  154POPC  C214 3564   6.029   3.878   5.105 -0.7649  0.2460 -0.8739
  154POPC  H14R 3565   6.038   3.824   5.201 -1.3892  0.3845 -0.7361
  154POPC  H14S 3566   6.084   3.817   5.030 -0.5750  3.2723 -3.3989
  154POPC  C215 3567   5.872   3.880   5.075  0.2447 -0.1554 -0.2290
  154POPC  H15R 3568   5.834   3.907   5.176  0.5518 -1.3823  0.2322
  154POPC  H15S 3569   5.843   3.775   5.054 -0.2765 -0.3819  1.4723
  154POPC  C216 3570   5.815   3.970   4.965 -0.7683 -0.1886  0.0593
  154POPC  H16R 3571   5.873   3.957   4.871 -1.3770  1.3928 -0.5643
  154POPC  H16S 3572   5.812   4.074   5.002 -0.8315  0.0258 -0.5382
  154POPC  C217 3573   5.675   3.930   4.933 -0.4592 -0.0634  0.2352
  154POPC  H17R 3574   5.606   3.943   5.019 -1.8492  2.2465 -1.1378
  154POPC  H17S 3575   5.673   3.819   4.927  0.4125 -0.0757  0.0573
  154POPC  C218 3576   5.618   3.991   4.804  0.7195 -0.7277 -0.3335
  154POPC  H18R 3577   5.600   4.098   4.827  1.3269 -0.1467 -2.3412
  154POPC  H18S 3578   5.517   3.948   4.783 -0.2369  0.4046  1.6731
  154POPC  H18T 3579   5.672   3.992   4.707 -2.8681 -0.0158 -2.5095
  154POPC   C33 3580   5.556   3.855   6.110  0.0716 -0.4487 -0.0103
  154POPC   H3X 3581   5.624   3.772   6.083  1.5722  0.7565 -0.0525
  154POPC   H3Y 3582   5.623   3.939   6.138 -2.4602  1.1710  1.6579
  154POPC   C34 3583   5.462   3.904   6.000 -0.0341 -0.9278 -1.2543
  154POPC   H4X 3584   5.400   3.987   6.039  0.1449 -1.1674 -0.4291
  154POPC   H4Y 3585   5.396   3.819   5.973 -1.3090 -0.4372  0.1812
  154POPC   C35 3586   5.531   3.966   5.872 -0.1189  0.3855 -0.6133
  154POPC   H5X 3587   5.601   4.051   5.889  0.2292  0.9872 -4.1752
  154POPC   H5Y 3588   5.447   4.000   5.807 -0.9180 -1.7905 -0.7793
  154POPC   C36 3589   5.604   3.856   5.803 -0.3432  0.1072  0.0505
  154POPC   H6X 3590   5.545   3.764   5.787  0.2240 -0.3378  0.4807
  154POPC   H6Y 3591   5.679   3.816   5.874 -1.4831 -0.4371  0.9761
  154POPC   C37 3592   5.651   3.896   5.664 -0.0682  0.1336 -0.4985
  154POPC   H7X 3593   5.741   3.834   5.643 -0.1233 -0.9430  2.1648
  154POPC   H7Y 3594   5.680   4.002   5.648 -2.0640  0.6423 -1.0947
  154POPC   C38 3595   5.551   3.857   5.553 -0.0613 -1.2045 -0.2809
  154POPC   H8X 3596   5.448   3.891   5.577  0.1853 -0.5761 -0.0732
  154POPC   H8Y 3597   5.567   3.749   5.536  0.1103 -0.8323 -2.7304
  154POPC   C39 3598   5.574   3.930   5.422  0.3344  0.0197 -0.4975
  154POPC   H9X 3599   5.684   3.937   5.405  0.8717 -1.7735  1.7843
  154POPC   H9Y 3600   5.535   4.034   5.420 -0.1966 -0.1803 -0.5982
  154POPC  C310 3601   5.522   3.861   5.298  1.0597  0.8235  0.2545
  154POPC  H10X 3602   5.562   3.758   5.281  1.6790  1.1914 -0.6079
  154POPC  H10Y 3603   5.554   3.928   5.215  1.3234  1.4204  0.8296
  154POPC  C311 3604   5.376   3.869   5.265  0.5162  0.9023 -0.4261
  154POPC  H11X 3605   5.346   3.976   5.269  2.1918  1.4110 -0.7077
  154POPC  H11Y 3606   5.335   3.819   5.356 -0.1817  1.4663 -0.4209
  154POPC  C312 3607   5.335   3.796   5.141  0.0145  0.4130 -0.1409
  154POPC  H12X 3608   5.386   3.697   5.137 -1.1043 -0.4365  3.2851
  154POPC  H12Y 3609   5.381   3.859   5.062 -1.6271 -0.6928 -2.0928
  154POPC  C313 3610   5.184   3.781   5.118  0.5055 -0.7358 -0.7142
  154POPC  H13X 3611   5.147   3.884   5.099  1.7293 -0.0724  0.3609
  154POPC  H13Y 3612   5.140   3.742   5.212 -1.7098 -0.8991 -1.7477
  154POPC  C314 3613   5.143   3.691   4.997 -0.7886 -0.5922 -0.1278
  154POPC  H14X 3614   5.159   3.589   5.036  1.7770 -0.2340 -0.0573
  154POPC  H14Y 3615   5.224   3.693   4.921  0.1972 -1.1605  0.8811
  154POPC  C315 3616   5.009   3.711   4.936 -0.2689 -0.6526  0.2328
  154POPC  H15X 3617   4.941   3.717   5.024  0.3743 -1.2755  0.7852
  154POPC  H15Y 3618   4.964   3.622   4.887  2.1907 -1.9531  0.1794
  154POPC  C316 3619   5.004   3.833   4.848  0.2141  0.1235  0.2765
  154POPC  H16X 3620   5.028   3.926   4.904 -0.0790 -0.5327  1.5397
  154POPC  H16Y 3621   4.907   3.825   4.796  0.4135  0.5640 -0.1680
  154POPC  H16Z 3622   5.077   3.827   4.764  0.3165 -0.0747  0.3768
  155POPC     N 3623   5.771   2.899   6.369 -0.6204 -0.2289  0.1910
  155POPC   C12 3624   5.836   2.995   6.466 -0.0129 -0.2505 -0.3330
  155POPC  H12A 3625   5.760   3.060   6.507 -1.2971 -2.5004  1.0352
  155POPC  H12B 3626   5.895   3.059   6.401 -2.3565  0.3559 -2.0091
  155POPC   C13 3627   5.666   2.817   6.427  0.4337  0.4246 -0.2166
  155POPC  H13A 3628   5.704   2.758   6.509 -2.5235  0.5781  1.3947
  155POPC  H13B 3629   5.595   2.885   6.471 -0.3871 -0.6469  0.1859
  155POPC  H13C 3630   5.625   2.750   6.353  1.2931 -0.4618  0.0873
  155POPC   C14 3631   5.703   2.986   6.274  0.8982  0.2409  0.1102
  155POPC  H14A 3632   5.660   2.932   6.191 -0.7077  0.3249  0.8417
  155POPC  H14B 3633   5.630   3.046   6.328  1.1301 -0.5386  1.3314
  155POPC  H14C 3634   5.758   3.070   6.235 -1.2335  2.7946  2.1458
  155POPC   C15 3635   5.872   2.809   6.307  0.2132  0.5577  0.8037
  155POPC  H15A 3636   5.829   2.731   6.245  0.4015 -1.0344  2.5701
  155POPC  H15B 3637   5.932   2.763   6.383  0.6538 -2.1272 -1.0074
  155POPC  H15C 3638   5.948   2.859   6.248 -1.8116  0.5311 -2.0507
  155POPC   C11 3639   5.894   2.938   6.591 -0.6293 -0.0257  0.6263
  155POPC  H11A 3640   5.834   2.860   6.642 -1.5874 -0.5187 -1.1679
  155POPC  H11B 3641   5.899   3.024   6.660  0.6087  0.4109  0.0333
  155POPC     P 3642   6.151   2.977   6.528 -0.2584  0.1423 -0.3562
  155POPC   O13 3643   6.273   2.914   6.598  0.3054  0.4007  0.8368
  155POPC   O14 3644   6.126   3.119   6.577  1.0808  0.4529  0.2155
  155POPC   O12 3645   6.027   2.888   6.567 -0.6511  0.1106 -0.3752
  155POPC   O11 3646   6.165   2.974   6.368 -0.6184  0.3624 -0.0805
  155POPC    C1 3647   6.224   2.866   6.296 -0.7773  0.5909 -0.0814
  155POPC    HA 3648   6.159   2.778   6.314  0.1483 -0.1948 -0.4993
  155POPC    HB 3649   6.328   2.834   6.318  0.1111  1.6712 -2.3472
  155POPC    C2 3650   6.243   2.897   6.149  0.1726 -0.3498 -0.2005
  155POPC    HS 3651   6.312   2.984   6.142 -1.0528  0.9053  2.1838
  155POPC   O21 3652   6.115   2.925   6.100 -0.4704  0.0056 -0.3459
  155POPC   C21 3653   6.109   3.006   5.991  0.0655 -0.2447 -1.2917
  155POPC   O22 3654   6.203   3.060   5.934  0.0729 -0.1588 -0.8406
  155POPC   C22 3655   5.967   2.994   5.930 -0.2527  0.2524  0.3028
  155POPC   H2R 3656   5.896   2.997   6.015 -1.1547  0.6180 -0.4520
  155POPC   H2S 3657   5.956   2.890   5.893 -0.3460  0.0238  0.9509
  155POPC    C3 3658   6.307   2.779   6.075 -0.0409  0.8861  0.1854
  155POPC    HX 3659   6.248   2.690   6.108  1.2388 -0.0525  0.0285
  155POPC    HY 3660   6.412   2.770   6.111 -0.0499 -0.7924 -0.1194
  155POPC   O31 3661   6.306   2.793   5.933  0.6398 -0.3507 -0.1125
  155POPC   C31 3662   6.409   2.852   5.877  0.0510 -0.0545 -0.4943
  155POPC   O32 3663   0.069   2.881   5.937 -0.0838  0.2307  0.8475
  155POPC   C32 3664   6.367   2.898   5.735 -0.1466  0.2067  0.9025
  155POPC   H2X 3665   6.256   2.896   5.734 -0.1893 -1.6156 -1.7671
  155POPC   H2Y 3666   6.399   2.828   5.655  0.9085 -0.1348  1.6049
  155POPC   C23 3667   5.935   3.089   5.815  0.7199  0.3382 -0.3553
  155POPC   H3R 3668   6.003   3.073   5.729 -0.1916 -0.3716 -0.9747
  155POPC   H3S 3669   5.925   3.193   5.853  0.4131 -0.0231  0.5852
  155POPC   C24 3670   5.791   3.071   5.761 -0.3815 -0.0342 -0.4355
  155POPC   H4R 3671   5.727   3.083   5.851 -2.5743 -3.0946 -1.4120
  155POPC   H4S 3672   5.776   2.965   5.730  1.2206 -1.1026  2.1378
  155POPC   C25 3673   5.753   3.170   5.649 -0.2076  0.0586 -0.2919
  155POPC   H5R 3674   5.822   3.161   5.562  0.9208 -2.2782  0.7722
  155POPC   H5S 3675   5.757   3.275   5.684 -0.9760  0.0279 -0.0965
  155POPC   C26 3676   5.609   3.161   5.602 -0.1386 -0.0755 -0.0109
  155POPC   H6R 3677   5.546   3.174   5.693 -1.8746 -0.2129 -1.1280
  155POPC   H6S 3678   5.602   3.060   5.556 -1.9411  0.1795 -0.3783
  155POPC   C27 3679   5.569   3.273   5.514 -0.0182  0.1596  0.1152
  155POPC   H7R 3680   5.639   3.288   5.429 -1.0391 -1.1064 -1.0054
  155POPC   H7S 3681   5.568   3.366   5.574  0.5176 -0.1191  0.5623
  155POPC   C28 3682   5.429   3.251   5.456  1.3192  0.2018  0.1238
  155POPC   H8R 3683   5.351   3.247   5.535 -0.6211 -0.3621 -1.7260
  155POPC   H8S 3684   5.432   3.160   5.393 -0.4040  0.0886  0.1437
  155POPC   C29 3685   5.405   3.364   5.365  0.4544  0.9512  0.1351
  155POPC   H91 3686   5.494   3.423   5.339  0.8065 -0.1305 -1.1950
  155POPC  C210 3687   5.290   3.416   5.320  0.2300 -1.4086  0.5725
  155POPC  H101 3688   5.293   3.498   5.246 -2.6241 -0.3925  1.4591
  155POPC  C211 3689   5.153   3.364   5.349  0.4937  0.4113 -0.1596
  155POPC  H11R 3690   5.079   3.445   5.330 -2.2099 -2.1763 -1.2977
  155POPC  H11S 3691   5.147   3.335   5.456  1.4253 -0.8646 -0.4281
  155POPC  C212 3692   5.114   3.242   5.261 -0.7914  0.3935 -0.2915
  155POPC  H12R 3693   5.011   3.210   5.284 -0.7820 -0.0052 -0.7956
  155POPC  H12S 3694   5.187   3.159   5.263 -1.0742  0.0486 -2.3301
  155POPC  C213 3695   5.103   3.278   5.116  0.6218  0.4805  0.3694
  155POPC  H13R 3696   5.201   3.323   5.087 -0.2121  2.1590  0.0561
  155POPC  H13S 3697   5.024   3.355   5.102  0.5185  0.2675 -0.2354
  155POPC  C214 3698   5.055   3.159   5.019 -0.7840 -0.2741  0.2700
  155POPC  H14R 3699   5.046   3.212   4.922  1.7624 -1.3035 -0.6184
  155POPC  H14S 3700   4.957   3.113   5.045 -1.4971  1.6209  1.0923
  155POPC  C215 3701   5.154   3.047   5.017 -0.2962 -0.1354 -0.1644
  155POPC  H15R 3702   5.181   2.991   5.109  1.6195 -1.1110 -1.2509
  155POPC  H15S 3703   5.251   3.088   4.983  1.3403 -2.8627  0.8169
  155POPC  C216 3704   5.125   2.939   4.908 -0.0619  0.5508 -0.8241
  155POPC  H16R 3705   5.210   2.871   4.885 -0.0295  0.0581  0.6127
  155POPC  H16S 3706   5.081   2.980   4.815 -1.8840 -2.1628 -1.2861
  155POPC  C217 3707   5.009   2.841   4.958 -1.1283  0.1441  0.9539
  155POPC  H17R 3708   4.908   2.869   4.921 -1.6738  0.5562  2.6789
  155POPC  H17S 3709   5.011   2.846   5.069  0.2762  1.2870  0.8946
  155POPC  C218 3710   5.047   2.684   4.926  0.6701 -0.0611  0.0440
  155POPC  H18R 3711   4.965   2.613   4.948  1.7274 -1.1097  0.7215
  155POPC  H18S 3712   5.127   2.648   4.993  0.1293 -0.2088  0.6212
  155POPC  H18T 3713   5.071   2.672   4.818 -0.6422 -0.2981 -0.2449
  155POPC   C33 3714  -0.024   3.038   5.702  0.4487  0.5635  0.5099
  155POPC   H3X 3715   0.075   3.022   5.655  0.9011  2.6895  0.6575
  155POPC   H3Y 3716  -0.022   3.097   5.796  1.1446  1.4921 -0.0836
  155POPC   C34 3717   6.330   3.114   5.592 -0.8531  0.7406 -0.3393
  155POPC   H4X 3718   6.356   3.222   5.585 -1.5222  0.8700 -1.0169
  155POPC   H4Y 3719   6.229   3.102   5.639 -0.3662 -3.0314  0.0480
  155POPC   C35 3720   6.347   3.055   5.454  0.8625  0.2674 -0.4763
  155POPC   H5X 3721   6.274   2.971   5.453  0.9743  0.1157  1.2300
  155POPC   H5Y 3722   6.446   3.005   5.451  0.0472 -1.4555 -0.1724
  155POPC   C36 3723   6.325   3.161   5.344 -0.2112  0.0105 -0.0204
  155POPC   H6X 3724   6.400   3.241   5.333  0.0624 -0.1138  0.9156
  155POPC   H6Y 3725   6.229   3.210   5.372  0.4040  1.8020 -0.9095
  155POPC   C37 3726   6.304   3.089   5.204  0.1305  0.6548  0.2511
  155POPC   H7X 3727   6.197   3.061   5.194 -0.7093  2.1112  3.6893
  155POPC   H7Y 3728   6.365   2.998   5.190  0.8497  0.7881  2.2627
  155POPC   C38 3729   6.333   3.195   5.100  0.4752 -0.0881 -0.2077
  155POPC   H8X 3730   6.438   3.232   5.103  0.8875 -1.1837  3.1771
  155POPC   H8Y 3731   6.288   3.291   5.134 -1.6777 -1.4891  1.1293
  155POPC   C39 3732   6.283   3.153   4.965 -0.3961  0.6306  0.0132
  155POPC   H9X 3733   6.174   3.133   4.956 -0.2913 -0.3791  0.8117
  155POPC   H9Y 3734   6.339   3.061   4.936 -1.3172  0.4142 -1.1315
  155POPC  C310 3735   6.314   3.250   4.854 -0.3660 -0.1441  0.0128
  155POPC  H10X 3736   6.260   3.345   4.872 -1.2894 -1.0739  2.6719
  155POPC  H10Y 3737   6.273   3.208   4.759  0.1245  0.5701 -0.5278
  155POPC  C311 3738   0.019   3.273   4.825 -0.1767 -0.0494 -0.3599
  155POPC  H11X 3739   0.070   3.175   4.816  1.9615  0.9860  0.0477
  155POPC  H11Y 3740   0.067   3.328   4.908 -0.4441  0.7994 -0.7509
  155POPC  C312 3741   0.034   3.350   4.692 -0.6127 -0.6734  0.7015
  155POPC  H12X 3742  -0.043   3.430   4.700 -0.1012 -0.3103  2.6833
  155POPC  H12Y 3743   0.013   3.279   4.609  0.7265 -2.0513  1.4929
  155POPC  C313 3744   0.176   3.415   4.678 -0.8303 -0.2741 -0.5007
  155POPC  H13X 3745   0.196   3.466   4.774  0.7790 -2.2663  0.2853
  155POPC  H13Y 3746   0.167   3.500   4.606 -5.3630  1.6914  1.9428
  155POPC  C314 3747   0.300   3.332   4.647 -0.0718 -0.2809  0.2541
  155POPC  H14X 3748   0.304   3.261   4.732 -2.4852  0.6561  1.2560
  155POPC  H14Y 3749   0.388   3.400   4.639  0.8926 -1.6441 -1.3268
  155POPC  C315 3750   0.278   3.251   4.521  0.2456 -0.0982  0.2807
  155POPC  H15X 3751   0.244   3.327   4.447  1.3641  0.6577  0.5119
  155POPC  H15Y 3752   0.198   3.177   4.542  1.0875 -1.7154 -1.7803
  155POPC  C316 3753   0.391   3.170   4.463 -0.1138 -0.3144 -0.1913
  155POPC  H16X 3754   0.425   3.088   4.529 -0.5346  0.3294  0.8524
  155POPC  H16Y 3755   0.487   3.221   4.440  0.0002 -0.2617  0.3874
  155POPC  H16Z 3756   0.355   3.118   4.372 -1.4245 -0.4440  0.3741
  156POPC     N 3757   4.060   5.720   7.647 -0.0000 -0.5152 -0.4506
  156POPC   C12 3758   4.161   5.609   7.622 -0.0780  0.5248 -0.2696
  156POPC  H12A 3759   4.107   5.518   7.600  0.3560  0.9655 -3.7466
  156POPC  H12B 3760   4.211   5.596   7.716  1.3255 -0.2469 -1.0881
  156POPC   C13 3761   3.943   5.721   7.553  0.1549 -0.0248  0.2050
  156POPC  H13A 3762   3.856   5.778   7.584  0.6811 -0.0956  1.9291
  156POPC  H13B 3763   3.972   5.764   7.458 -1.0369  0.7349  0.1582
  156POPC  H13C 3764   3.917   5.621   7.521  0.5065  0.4206 -1.5866
  156POPC   C14 3765   4.004   5.685   7.789  0.2466 -0.7865  0.5534
  156POPC  H14A 3766   3.913   5.736   7.818 -0.9142 -1.7516 -1.1644
  156POPC  H14B 3767   3.975   5.581   7.792 -2.7422 -0.0838  0.1108
  156POPC  H14C 3768   4.085   5.705   7.857  2.3139  1.2257 -2.2397
  156POPC   C15 3769   4.126   5.853   7.645  0.2262 -0.1155  0.6062
  156POPC  H15A 3770   4.194   5.848   7.561 -2.2578 -2.9656 -1.4444
  156POPC  H15B 3771   4.190   5.857   7.731  0.6248  1.4628  0.2678
  156POPC  H15C 3772   4.062   5.939   7.633 -2.0242 -1.5344  1.8351
  156POPC   C11 3773   4.248   5.622   7.499 -0.0464 -0.0431  0.6064
  156POPC  H11A 3774   4.299   5.526   7.478 -0.9433 -0.2229 -0.8141
  156POPC  H11B 3775   4.323   5.704   7.505 -0.4757  0.6528 -2.2809
  156POPC     P 3776   4.097   5.528   7.292  0.2483 -0.4039 -0.2614
  156POPC   O13 3777   3.951   5.556   7.264  0.3153  0.7548  0.6771
  156POPC   O14 3778   4.126   5.393   7.353  0.7388 -0.2751  0.3529
  156POPC   O12 3779   4.160   5.642   7.380 -0.2742 -0.2758 -0.5027
  156POPC   O11 3780   4.174   5.540   7.159 -0.5008  0.8814  0.7819
  156POPC    C1 3781   4.172   5.664   7.085  0.3527  1.6216 -0.5989
  156POPC    HA 3782   4.275   5.701   7.069  1.1231  0.3804  1.1830
  156POPC    HB 3783   4.125   5.752   7.134 -0.9944 -0.3808  1.9525
  156POPC    C2 3784   4.112   5.647   6.948 -0.4060 -0.0174  0.0353
  156POPC    HS 3785   4.005   5.621   6.965 -0.6947  1.3458  0.4603
  156POPC   O21 3786   4.178   5.541   6.878  0.0579  0.1880  0.2823
  156POPC   C21 3787   4.113   5.422   6.886  0.1285  0.0706 -0.4946
  156POPC   O22 3788   4.022   5.391   6.962 -0.0990  0.3958  0.8505
  156POPC   C22 3789   4.169   5.318   6.791 -0.2773 -0.0935  0.1287
  156POPC   H2R 3790   4.222   5.240   6.850 -0.2417 -2.2617 -2.5387
  156POPC   H2S 3791   4.244   5.362   6.722 -1.6266 -0.2151 -1.4876
  156POPC    C3 3792   4.113   5.780   6.877 -0.9188  0.7251  0.4300
  156POPC    HX 3793   4.217   5.816   6.862 -0.7011  1.2135  2.7772
  156POPC    HY 3794   4.048   5.843   6.940 -0.3205  0.0951  1.7065
  156POPC   O31 3795   4.044   5.770   6.754 -0.1316 -0.2384 -0.3957
  156POPC   C31 3796   4.112   5.758   6.641  0.0091  0.6813  0.1064
  156POPC   O32 3797   4.226   5.772   6.622 -0.5596  0.3756 -0.1975
  156POPC   C32 3798   4.009   5.721   6.533  0.0032  0.6699 -0.3593
  156POPC   H2X 3799   3.918   5.778   6.559  0.6704  1.4096  0.4214
  156POPC   H2Y 3800   3.973   5.617   6.548  0.8243  0.5652  1.0536
  156POPC   C23 3801   4.061   5.249   6.706 -0.3436 -0.2018 -0.2339
  156POPC   H3R 3802   3.961   5.245   6.755  0.8543  1.6525  2.6376
  156POPC   H3S 3803   4.085   5.141   6.693 -0.6008 -0.2181 -0.5763
  156POPC   C24 3804   4.054   5.312   6.564 -0.3127  0.2724 -0.1080
  156POPC   H4R 3805   4.032   5.421   6.559 -2.9813 -0.2371 -1.4258
  156POPC   H4S 3806   3.953   5.287   6.524 -0.5133  0.3501  0.3425
  156POPC   C25 3807   4.178   5.264   6.485  0.1693 -0.2052 -0.1439
  156POPC   H5R 3808   4.182   5.154   6.501  1.5000 -0.2005 -0.3939
  156POPC   H5S 3809   4.270   5.307   6.528 -0.7432  0.0389  1.6783
  156POPC   C26 3810   4.146   5.267   6.334 -0.0108  0.3633  0.1217
  156POPC   H6R 3811   4.119   5.374   6.320 -0.4976  0.1723 -0.4341
  156POPC   H6S 3812   4.064   5.200   6.300 -0.8105  1.0688  0.5962
  156POPC   C27 3813   4.269   5.231   6.244 -0.2586  1.1712 -0.1742
  156POPC   H7R 3814   4.312   5.132   6.269 -0.2700  1.5579  1.5058
  156POPC   H7S 3815   4.351   5.298   6.278  0.0744  0.8137 -0.2757
  156POPC   C28 3816   4.251   5.254   6.093  0.4243 -0.3686 -0.5403
  156POPC   H8R 3817   4.337   5.208   6.039 -0.4370 -2.4805 -0.2129
  156POPC   H8S 3818   4.251   5.361   6.065  2.1912 -0.4917 -1.1451
  156POPC   C29 3819   4.124   5.181   6.053  0.1127 -0.7307 -0.6687
  156POPC   H91 3820   4.118   5.085   6.106  2.1054 -1.0940 -1.0023
  156POPC  C210 3821   4.019   5.236   5.985 -0.3265  0.5437 -0.1151
  156POPC  H101 3822   3.943   5.162   5.956  0.4725  0.9199 -3.6381
  156POPC  C211 3823   4.008   5.366   5.919  0.4606 -0.5690 -0.9853
  156POPC  H11R 3824   4.075   5.446   5.957 -0.8436  2.0626 -3.7262
  156POPC  H11S 3825   3.905   5.402   5.939  0.6673  1.0315 -2.4888
  156POPC  C212 3826   4.035   5.360   5.768 -0.7898  0.4218 -0.3943
  156POPC  H12R 3827   3.999   5.459   5.733 -0.0150  0.2022 -1.8866
  156POPC  H12S 3828   3.974   5.278   5.724  0.4440 -0.8376  0.1466
  156POPC  C213 3829   4.179   5.343   5.723 -0.1185 -0.2557 -0.9227
  156POPC  H13R 3830   4.225   5.246   5.753  0.0811  0.1664  0.1477
  156POPC  H13S 3831   4.230   5.414   5.791 -1.6286 -1.2500  1.3419
  156POPC  C214 3832   4.195   5.373   5.573 -0.3062 -0.4939  0.3695
  156POPC  H14R 3833   4.302   5.398   5.557 -0.4193  1.1695  1.9011
  156POPC  H14S 3834   4.139   5.467   5.553 -0.4492 -0.3332  1.4704
  156POPC  C215 3835   4.165   5.250   5.494  0.3418  0.0164  0.3551
  156POPC  H15R 3836   4.057   5.240   5.469  0.4641 -0.0658 -0.1494
  156POPC  H15S 3837   4.190   5.158   5.551  1.0392  1.7833  3.1266
  156POPC  C216 3838   4.247   5.247   5.359  0.2641  0.0346  0.5655
  156POPC  H16R 3839   4.354   5.221   5.375  0.5130 -0.0809 -1.1721
  156POPC  H16S 3840   4.235   5.349   5.318  1.6327  0.1508  0.3895
  156POPC  C217 3841   4.175   5.137   5.272 -0.2412 -0.0553 -0.2100
  156POPC  H17R 3842   4.075   5.172   5.239 -0.1346 -1.1319 -1.7833
  156POPC  H17S 3843   4.177   5.042   5.330  2.9483 -0.7822 -1.2867
  156POPC  C218 3844   4.257   5.110   5.145 -0.2285 -0.4943  0.1334
  156POPC  H18R 3845   4.213   5.039   5.071  3.0393 -0.4787 -2.0242
  156POPC  H18S 3846   4.357   5.072   5.172  0.1301 -0.3922 -0.9867
  156POPC  H18T 3847   4.272   5.201   5.083 -0.7387 -2.1118 -2.5358
  156POPC   C33 3848   4.073   5.742   6.392  1.4828 -0.4936  0.2888
  156POPC   H3X 3849   4.144   5.658   6.376  1.0795 -0.8530  0.3666
  156POPC   H3Y 3850   4.136   5.833   6.400 -0.0445  0.5094  1.3326
  156POPC   C34 3851   3.969   5.773   6.281 -0.8945  0.5234 -0.3187
  156POPC   H4X 3852   4.024   5.818   6.196 -1.3799  3.3555  0.7362
  156POPC   H4Y 3853   3.896   5.849   6.318 -1.9962  0.0708 -1.5149
  156POPC   C35 3854   3.906   5.642   6.234 -0.6265  0.2956 -0.5530
  156POPC   H5X 3855   3.877   5.573   6.316  4.8468 -2.6511 -0.6225
  156POPC   H5Y 3856   3.985   5.596   6.171 -0.9662 -1.1942  0.0531
  156POPC   C36 3857   3.779   5.668   6.149  0.0852 -0.3237 -0.1774
  156POPC   H6X 3858   3.689   5.686   6.213 -0.2804 -1.1379 -0.4515
  156POPC   H6Y 3859   3.765   5.572   6.096  1.5314 -0.2111 -0.8001
  156POPC   C37 3860   3.785   5.781   6.046 -0.0054  0.0307 -0.4330
  156POPC   H7X 3861   3.888   5.790   6.005 -0.0548  2.4731 -0.2043
  156POPC   H7Y 3862   3.762   5.879   6.094 -1.0731  0.1327 -1.1271
  156POPC   C38 3863   3.689   5.771   5.929  0.2916  0.6466  0.0411
  156POPC   H8X 3864   3.682   5.870   5.879 -1.7389 -0.0960 -1.2766
  156POPC   H8Y 3865   3.586   5.757   5.967  0.3630 -1.1423 -0.3243
  156POPC   C39 3866   3.723   5.668   5.817 -0.2715 -0.2023 -0.2842
  156POPC   H9X 3867   3.746   5.572   5.868  0.3761  0.6862  1.1362
  156POPC   H9Y 3868   3.819   5.697   5.768 -0.6229 -2.4695 -2.5625
  156POPC  C310 3869   3.609   5.680   5.711 -0.6004  0.2660  0.8357
  156POPC  H10X 3870   3.612   5.789   5.688  1.6442 -0.0734 -0.8350
  156POPC  H10Y 3871   3.518   5.642   5.762 -2.2245  1.8801 -0.6943
  156POPC  C311 3872   3.637   5.597   5.579  0.0751 -0.2791  0.1133
  156POPC  H11X 3873   3.547   5.611   5.516  0.5990 -0.4653 -0.6803
  156POPC  H11Y 3874   3.654   5.489   5.599  0.1938 -0.6051 -1.5963
  156POPC  C312 3875   3.758   5.662   5.498 -0.7270  0.8857  0.0436
  156POPC  H12X 3876   3.853   5.631   5.547 -0.8877  0.7512  0.2675
  156POPC  H12Y 3877   3.755   5.771   5.518 -1.0232  0.5483  2.0200
  156POPC  C313 3878   3.763   5.627   5.350 -0.7326  0.5940 -0.3105
  156POPC  H13X 3879   3.665   5.641   5.298 -0.1323  2.2955 -1.0529
  156POPC  H13Y 3880   3.779   5.518   5.335 -3.6531  0.0319  0.1039
  156POPC  C314 3881   3.878   5.692   5.276  0.1788  0.2333 -0.4873
  156POPC  H14X 3882   3.963   5.679   5.346 -0.1724  0.1306 -0.0764
  156POPC  H14Y 3883   3.863   5.801   5.265  1.1734  0.3704 -0.6326
  156POPC  C315 3884   3.893   5.636   5.135 -0.5938 -0.0754  0.5146
  156POPC  H15X 3885   3.806   5.667   5.073  0.2608 -0.2046 -0.7814
  156POPC  H15Y 3886   3.885   5.526   5.129  1.3437 -0.1706 -2.8844
  156POPC  C316 3887   4.018   5.693   5.069 -0.1911  0.4457 -0.0083
  156POPC  H16X 3888   4.023   5.660   4.963  3.0683  0.7660 -0.0523
  156POPC  H16Y 3889   4.104   5.640   5.113 -0.5125 -0.0717  0.0008
  156POPC  H16Z 3890   4.021   5.804   5.074 -0.0690  0.4438 -0.0566
  157POPC     N 3891   5.988   2.264   7.006  0.3570 -0.0195 -0.0159
  157POPC   C12 3892   6.115   2.181   7.009 -0.5042 -0.0868  0.4238
  157POPC  H12A 3893   6.110   2.113   7.093 -2.1608  0.4424  0.7826
  157POPC  H12B 3894   6.202   2.242   7.027  0.5317 -1.9116  1.9740
  157POPC   C13 3895   5.862   2.180   7.015  0.3042  0.4705  0.1301
  157POPC  H13A 3896   5.853   2.128   6.921  1.8835  1.8151 -0.8240
  157POPC  H13B 3897   5.875   2.110   7.096  2.5483  1.0421  0.3352
  157POPC  H13C 3898   5.777   2.236   7.051  0.7074  1.4826 -0.4368
  157POPC   C14 3899   5.991   2.341   7.131  0.8208  0.5115 -0.0411
  157POPC  H14A 3900   6.085   2.388   7.154  0.7582 -0.5223  2.7392
  157POPC  H14B 3901   5.926   2.427   7.123  1.6764  1.0897 -1.0377
  157POPC  H14C 3902   5.969   2.285   7.221  2.3892  3.3160  2.2610
  157POPC   C15 3903   5.982   2.351   6.885 -0.4177  0.3167 -0.1885
  157POPC  H15A 3904   6.000   2.287   6.800 -3.1918 -2.4980  1.1446
  157POPC  H15B 3905   6.056   2.427   6.904  0.8337 -1.1004  0.7797
  157POPC  H15C 3906   5.888   2.401   6.866  0.1991  1.1707 -1.1148
  157POPC   C11 3907   6.143   2.108   6.882  0.2652  0.3349  0.1954
  157POPC  H11A 3908   6.053   2.048   6.856  0.0699  1.8096 -3.1691
  157POPC  H11B 3909   6.225   2.034   6.890  0.8058  0.5238 -2.4730
  157POPC     P 3910   6.178   2.128   6.621  0.2250 -0.2361  0.0793
  157POPC   O13 3911   6.316   2.098   6.588  0.0885  0.4339  0.2886
  157POPC   O14 3912   6.117   2.233   6.536  0.0124 -0.4307 -0.4126
  157POPC   O12 3913   6.179   2.181   6.765  0.6217 -0.0994  0.0896
  157POPC   O11 3914   6.083   1.997   6.618 -0.1984 -0.1177 -0.5007
  157POPC    C1 3915   6.012   1.961   6.501  0.4042 -0.1326  0.0509
  157POPC    HA 3916   5.975   2.049   6.444 -0.9629 -0.3953  0.4827
  157POPC    HB 3917   5.921   1.904   6.530  1.2804 -3.4689 -3.0095
  157POPC    C2 3918   6.088   1.865   6.408 -0.9340  0.8736 -0.2203
  157POPC    HS 3919   6.149   1.798   6.473  0.5628  0.3402 -2.1018
  157POPC   O21 3920   6.176   1.936   6.322  0.2956 -0.5014 -0.1877
  157POPC   C21 3921   6.274   1.863   6.264  0.2388  0.6421  0.0121
  157POPC   O22 3922   6.303   1.744   6.292 -0.3441 -0.1007 -0.3747
  157POPC   C22 3923   6.333   1.950   6.154  0.4003  0.4990  0.1482
  157POPC   H2R 3924   6.443   1.946   6.162  0.4768  0.9128 -0.6228
  157POPC   H2S 3925   6.299   2.054   6.175 -1.1494 -0.2130  1.4547
  157POPC    C3 3926   5.989   1.776   6.326 -0.2317  0.9835 -0.4284
  157POPC    HX 3927   5.934   1.710   6.397  1.5490  0.2600  0.3198
  157POPC    HY 3928   6.051   1.705   6.269 -2.0009 -0.9745 -0.0512
  157POPC   O31 3929   5.886   1.847   6.258 -0.6409 -0.5695  0.2604
  157POPC   C31 3930   5.790   1.775   6.198 -0.6155 -0.0889  0.0033
  157POPC   O32 3931   5.777   1.654   6.208  0.4146 -0.1504 -0.2860
  157POPC   C32 3932   5.696   1.870   6.129 -0.3009  0.4727 -0.6683
  157POPC   H2X 3933   5.741   1.971   6.142 -2.1657  1.1706  0.9620
  157POPC   H2Y 3934   5.603   1.869   6.190 -0.3537 -0.0260 -0.7515
  157POPC   C23 3935   6.300   1.910   6.014  0.1244  0.2499 -0.8222
  157POPC   H3R 3936   6.293   1.802   5.987  0.4908  0.5415 -2.1401
  157POPC   H3S 3937   6.382   1.941   5.946  2.0329  0.0799  1.2688
  157POPC   C24 3938   6.175   1.986   5.968  0.0304 -0.0128 -0.4761
  157POPC   H4R 3939   6.199   2.093   5.986  1.4766 -0.7421  2.6272
  157POPC   H4S 3940   6.093   1.950   6.032  1.3114 -0.4691  0.9601
  157POPC   C25 3941   6.146   1.954   5.818  0.6981 -0.2617 -0.2305
  157POPC   H5R 3942   6.131   1.844   5.810  0.4095 -0.0900 -3.1007
  157POPC   H5S 3943   6.232   1.981   5.754 -0.7741  0.4457 -1.9863
  157POPC   C26 3944   6.022   2.027   5.767  0.0978 -0.1147  0.8695
  157POPC   H6R 3945   6.042   2.136   5.779  1.0079 -0.4044  2.1411
  157POPC   H6S 3946   5.933   2.002   5.827 -0.0973  0.9691  1.0548
  157POPC   C27 3947   5.988   1.994   5.624 -0.4644 -0.2517 -0.4325
  157POPC   H7R 3948   5.886   2.030   5.602 -0.4009 -0.0555 -0.4053
  157POPC   H7S 3949   5.994   1.883   5.622  3.1889 -0.3105  2.2553
  157POPC   C28 3950   6.083   2.057   5.513 -0.2529  0.5753  0.1449
  157POPC   H8R 3951   6.189   2.025   5.529 -0.2424  0.6348  0.1922
  157POPC   H8S 3952   6.093   2.166   5.534  0.0305  0.3928  1.0056
  157POPC   C29 3953   6.035   2.033   5.374 -0.2868 -0.4948  0.4576
  157POPC   H91 3954   6.006   1.929   5.351  0.0445 -0.5622  0.3472
  157POPC  C210 3955   6.035   2.122   5.273 -0.7208 -0.0290 -0.0379
  157POPC  H101 3956   5.994   2.091   5.176 -1.0513  3.1635 -1.0233
  157POPC  C211 3957   6.089   2.263   5.274 -0.5453 -0.0669 -0.1991
  157POPC  H11R 3958   6.154   2.275   5.363  0.2971 -1.8482 -0.5464
  157POPC  H11S 3959   6.001   2.331   5.282 -0.1140  0.2761  3.9943
  157POPC  C212 3960   6.170   2.296   5.147  0.1853  0.0500 -0.6657
  157POPC  H12R 3961   6.240   2.210   5.135  0.9509  0.6198 -0.2686
  157POPC  H12S 3962   6.228   2.388   5.164  1.2836 -0.1260 -3.0151
  157POPC  C213 3963   6.083   2.312   5.026  0.2001 -0.2075 -0.0927
  157POPC  H13R 3964   6.008   2.390   5.049 -1.0964 -0.9058 -1.7505
  157POPC  H13S 3965   6.027   2.220   4.998 -1.6117  0.7965  0.1557
  157POPC  C214 3966   6.167   2.358   4.902  0.3666  0.9719  0.7133
  157POPC  H14R 3967   6.213   2.259   4.879 -2.6690 -0.2877 -0.3238
  157POPC  H14S 3968   6.251   2.429   4.922  0.6692  1.2724 -1.4212
  157POPC  C215 3969   6.083   2.396   4.779  0.3080  0.3890  0.3752
  157POPC  H15R 3970   6.157   2.409   4.697  0.8140  1.2440  0.9568
  157POPC  H15S 3971   6.040   2.498   4.790  1.1918  1.2515 -3.0818
  157POPC  C216 3972   5.965   2.312   4.733 -0.2955  0.2288 -0.0769
  157POPC  H16R 3973   5.919   2.355   4.641  0.0492 -0.4841 -0.5830
  157POPC  H16S 3974   5.881   2.310   4.807  0.6382 -0.6437  0.9962
  157POPC  C217 3975   6.003   2.170   4.686 -0.2510 -0.0154 -0.8026
  157POPC  H17R 3976   5.988   2.106   4.776  0.0469 -1.4927 -1.7651
  157POPC  H17S 3977   6.112   2.166   4.669 -0.2668 -1.2652 -0.7392
  157POPC  C218 3978   5.913   2.115   4.575 -0.8094 -0.2512  0.0835
  157POPC  H18R 3979   5.930   2.176   4.483 -0.3812 -1.0881 -0.4100
  157POPC  H18S 3980   5.944   2.010   4.556 -1.4919 -0.7025  1.3540
  157POPC  H18T 3981   5.805   2.113   4.601 -1.2060 -1.7547 -1.4729
  157POPC   C33 3982   5.672   1.838   5.977  0.0839 -0.0303 -0.1486
  157POPC   H3X 3983   5.608   1.748   5.966 -1.5403  0.8277  1.6959
  157POPC   H3Y 3984   5.766   1.828   5.919 -0.9839  0.3123 -2.0298
  157POPC   C34 3985   5.600   1.956   5.909  0.1805  0.3769 -0.0304
  157POPC   H4X 3986   5.667   2.044   5.906  1.9875 -0.9469 -2.4950
  157POPC   H4Y 3987   5.507   1.978   5.965  0.5770  1.8894  0.0702
  157POPC   C35 3988   5.572   1.931   5.761  0.0795  0.2993  1.0518
  157POPC   H5X 3989   5.666   1.880   5.730  0.1223  0.2057  1.3327
  157POPC   H5Y 3990   5.570   2.033   5.718  0.6070  0.6240  1.7925
  157POPC   C36 3991   5.449   1.831   5.746  0.4945  0.2669 -0.0245
  157POPC   H6X 3992   5.360   1.895   5.766  0.0756 -0.3056 -0.0196
  157POPC   H6Y 3993   5.458   1.743   5.813 -0.0869  0.7994  0.7763
  157POPC   C37 3994   5.412   1.782   5.603  0.5476  0.3029  0.3354
  157POPC   H7X 3995   5.376   1.868   5.542  1.1398  0.5203  0.2849
  157POPC   H7Y 3996   5.322   1.718   5.611  0.4193 -0.4395 -4.2626
  157POPC   C38 3997   5.522   1.698   5.524  0.4892  0.2874 -0.0196
  157POPC   H8X 3998   5.557   1.607   5.577 -2.9128 -0.2895  1.4676
  157POPC   H8Y 3999   5.613   1.761   5.514  1.1746 -0.5843  0.5746
  157POPC   C39 4000   5.467   1.652   5.385  0.0130  0.7939 -0.6812
  157POPC   H9X 4001   5.382   1.581   5.401  0.5646 -0.2014 -2.0316
  157POPC   H9Y 4002   5.543   1.598   5.325 -0.3888  0.9569 -1.3433
  157POPC  C310 4003   5.410   1.765   5.296 -0.2630  0.3013 -0.1725
  157POPC  H10X 4004   5.483   1.847   5.286 -0.1053  0.0188 -1.4259
  157POPC  H10Y 4005   5.322   1.808   5.349 -1.7776  0.8455 -2.9525
  157POPC  C311 4006   5.372   1.713   5.157 -0.1702  0.1134 -0.2704
  157POPC  H11X 4007   5.294   1.634   5.150  1.1254 -1.1581 -1.2901
  157POPC  H11Y 4008   5.458   1.662   5.109 -0.2456  0.2402 -0.5388
  157POPC  C312 4009   5.347   1.822   5.056  0.8974 -0.0903  0.7230
  157POPC  H12X 4010   5.434   1.890   5.044 -1.0527  2.5525  0.6208
  157POPC  H12Y 4011   5.264   1.892   5.080  1.4153  0.3315  1.3101
  157POPC  C313 4012   5.309   1.762   4.916  0.5035  0.1526  0.2858
  157POPC  H13X 4013   5.217   1.702   4.934  0.7140 -0.3790 -0.3840
  157POPC  H13Y 4014   5.395   1.703   4.877  0.4581  1.4800 -1.9927
  157POPC  C314 4015   5.269   1.860   4.805 -0.7174  0.2055  0.1108
  157POPC  H14X 4016   5.360   1.917   4.779 -0.7460 -0.9715 -3.0202
  157POPC  H14Y 4017   5.190   1.930   4.840 -1.6904 -1.2813  1.0126
  157POPC  C315 4018   5.216   1.790   4.678 -0.2553  0.1761  0.3453
  157POPC  H15X 4019   5.127   1.732   4.710  0.1516  0.3213  1.7888
  157POPC  H15Y 4020   5.299   1.726   4.638 -0.7914  0.4157 -1.1889
  157POPC  C316 4021   5.181   1.878   4.557  0.2427 -0.3439  0.3761
  157POPC  H16X 4022   5.276   1.911   4.510 -1.2606  2.7974 -0.7716
  157POPC  H16Y 4023   5.126   1.973   4.574 -2.5669 -1.3732 -2.0492
  157POPC  H16Z 4024   5.123   1.816   4.485 -1.8537  0.2123  1.5179
  158POPC     N 4025   2.477   3.421   6.904 -0.2392  0.3204  0.1327
  158POPC   C12 4026   2.443   3.457   6.762 -0.1748 -0.7743 -0.1621
  158POPC  H12A 4027   2.344   3.421   6.737  0.4676 -2.0471 -0.9357
  158POPC  H12B 4028   2.508   3.405   6.694  0.2975  0.1001 -0.3915
  158POPC   C13 4029   2.371   3.481   6.994  0.3648 -0.1862  0.0837
  158POPC  H13A 4030   2.359   3.586   6.971  0.8977  0.2934  1.8313
  158POPC  H13B 4031   2.271   3.449   6.970  0.2889  0.8564 -1.1209
  158POPC  H13C 4032   2.393   3.467   7.098 -0.9399  0.4359  0.4719
  158POPC   C14 4033   2.469   3.268   6.910  0.3368  0.0287 -0.0539
  158POPC  H14A 4034   2.365   3.241   6.910  0.4254 -0.3529 -1.2316
  158POPC  H14B 4035   2.498   3.223   6.816 -2.1222  1.6738 -1.7068
  158POPC  H14C 4036   2.525   3.229   6.995  0.3852  1.5076  0.6220
  158POPC   C15 4037   2.610   3.462   6.944  0.1918 -0.3150 -0.6466
  158POPC  H15A 4038   2.689   3.421   6.884  0.2313  1.4064 -1.8379
  158POPC  H15B 4039   2.615   3.445   7.051  0.7904  0.0389 -0.6176
  158POPC  H15C 4040   2.631   3.567   6.946  2.2693 -0.6811  1.9220
  158POPC   C11 4041   2.449   3.605   6.742 -0.3137 -0.1732 -0.5675
  158POPC  H11A 4042   2.476   3.620   6.635  0.8342  0.7527 -0.1675
  158POPC  H11B 4043   2.538   3.653   6.788  0.5052  0.1793 -2.4241
  158POPC     P 4044   2.207   3.676   6.714 -0.5172  0.1442  0.2893
  158POPC   O13 4045   2.116   3.772   6.787 -0.4020 -0.1708  0.4413
  158POPC   O14 4046   2.156   3.538   6.699 -0.1717 -0.3892 -0.4151
  158POPC   O12 4047   2.337   3.677   6.791 -0.3105  0.2026  0.5545
  158POPC   O11 4048   2.257   3.733   6.575 -0.0928  0.6010  0.4973
  158POPC    C1 4049   2.240   3.869   6.547  0.3230 -0.0862 -0.3497
  158POPC    HA 4050   2.264   3.938   6.630 -0.9137 -0.4164  0.3114
  158POPC    HB 4051   2.139   3.896   6.512  0.8085  1.8110 -0.3746
  158POPC    C2 4052   2.347   3.904   6.436  0.3887  0.5381 -0.4590
  158POPC    HS 4053   2.366   4.014   6.427  1.5228  0.4979  0.9497
  158POPC   O21 4054   2.295   3.851   6.313  0.3436 -0.0500  0.0793
  158POPC   C21 4055   2.216   3.930   6.250  0.7592  0.1570 -0.4769
  158POPC   O22 4056   2.169   4.040   6.286 -0.3332 -0.1938 -0.4140
  158POPC   C22 4057   2.159   3.860   6.126 -0.5441  0.5235  0.1699
  158POPC   H2R 4058   2.165   3.950   6.061 -0.5283 -1.1832 -2.3511
  158POPC   H2S 4059   2.056   3.829   6.154 -1.3272  1.8806 -1.0851
  158POPC    C3 4060   2.488   3.837   6.469  0.2280  0.5539 -0.0562
  158POPC    HX 4061   2.478   3.726   6.468 -1.0407  0.6324  0.8447
  158POPC    HY 4062   2.496   3.864   6.576  0.1801 -0.8015  0.3038
  158POPC   O31 4063   2.598   3.887   6.396 -0.1832 -0.4899  0.2715
  158POPC   C31 4064   2.714   3.842   6.429  0.1412  0.9167 -0.3055
  158POPC   O32 4065   2.741   3.748   6.502  0.1648 -0.3543 -0.2673
  158POPC   C32 4066   2.822   3.895   6.334  0.0324 -0.2167 -0.2637
  158POPC   H2X 4067   2.904   3.914   6.406 -1.8667 -0.1054  2.0141
  158POPC   H2Y 4068   2.774   3.987   6.292 -0.7654  0.0883  1.2457
  158POPC   C23 4069   2.242   3.751   6.062 -0.1385 -0.2456  0.4937
  158POPC   H3R 4070   2.240   3.665   6.131  1.0059  0.9409  2.0797
  158POPC   H3S 4071   2.345   3.787   6.040  0.8452 -3.7357 -1.3750
  158POPC   C24 4072   2.170   3.700   5.938  0.1636  0.5790  0.5100
  158POPC   H4R 4073   2.159   3.785   5.868 -0.5444 -0.6215 -0.8786
  158POPC   H4S 4074   2.071   3.652   5.952  0.5541  0.1070  1.8234
  158POPC   C25 4075   2.250   3.583   5.877  0.4383 -0.3080  0.5489
  158POPC   H5R 4076   2.247   3.498   5.950 -0.8470 -3.1684 -2.5646
  158POPC   H5S 4077   2.358   3.606   5.865  0.1608  1.9289  1.7808
  158POPC   C26 4078   2.178   3.533   5.754 -0.0915  0.3021  1.1298
  158POPC   H6R 4079   2.071   3.521   5.780  0.0538 -0.2127  1.5026
  158POPC   H6S 4080   2.222   3.442   5.708  2.5153  0.8796  2.2992
  158POPC   C27 4081   2.191   3.638   5.633  0.3381  0.0703 -0.7730
  158POPC   H7R 4082   2.158   3.739   5.666 -2.1113 -1.1795  0.9117
  158POPC   H7S 4083   2.126   3.608   5.548  0.7483 -1.6654 -0.5254
  158POPC   C28 4084   2.327   3.655   5.564 -0.4545 -0.0719 -0.2283
  158POPC   H8R 4085   2.355   3.553   5.529  0.3601 -0.2096  0.7792
  158POPC   H8S 4086   2.401   3.681   5.642 -1.7504 -0.2155  1.0877
  158POPC   C29 4087   2.327   3.751   5.449  0.4507  0.0245  0.2895
  158POPC   H91 4088   2.319   3.855   5.483  1.4381  0.5617 -1.0433
  158POPC  C210 4089   2.297   3.717   5.326  0.3544  0.8256 -0.3503
  158POPC  H101 4090   2.304   3.796   5.249  0.0377  0.2145 -1.0225
  158POPC  C211 4091   2.270   3.578   5.273 -0.4503  0.3132 -0.1802
  158POPC  H11R 4092   2.290   3.491   5.340  1.4891  1.2288  0.4984
  158POPC  H11S 4093   2.340   3.564   5.188 -0.7069 -0.2429 -0.3063
  158POPC  C212 4094   2.119   3.557   5.227 -0.2012 -0.4837  0.0396
  158POPC  H12R 4095   2.051   3.553   5.315 -1.1735  4.4424 -0.2373
  158POPC  H12S 4096   2.107   3.461   5.171 -1.5617 -0.4371  0.2131
  158POPC  C213 4097   2.059   3.644   5.114 -0.4418  0.2213 -0.1844
  158POPC  H13R 4098   2.142   3.670   5.045  0.4379  0.0769  0.7935
  158POPC  H13S 4099   2.021   3.743   5.146 -4.8212 -1.8941  2.1373
  158POPC  C214 4100   1.947   3.585   5.025  0.3619  0.1489  0.1843
  158POPC  H14R 4101   1.856   3.560   5.084  0.3639 -1.6652 -0.5501
  158POPC  H14S 4102   1.984   3.484   4.998  0.3058  0.1023  0.2791
  158POPC  C215 4103   1.916   3.676   4.905 -0.1109  0.4735  0.4217
  158POPC  H15R 4104   2.006   3.679   4.841  0.1979  2.6098  0.8829
  158POPC  H15S 4105   1.904   3.784   4.927  0.0010  1.2384 -2.8559
  158POPC  C216 4106   1.793   3.625   4.832  0.4155  0.3181 -0.4841
  158POPC  H16R 4107   1.712   3.637   4.907  1.8376  1.3996  0.9339
  158POPC  H16S 4108   1.797   3.517   4.803 -1.3733  0.0183  0.2383
  158POPC  C217 4109   1.754   3.704   4.708  0.5245  0.2976  0.0253
  158POPC  H17R 4110   1.841   3.717   4.640  0.7688 -0.7300  0.1264
  158POPC  H17S 4111   1.715   3.804   4.740  0.3571 -0.0591  0.9589
  158POPC  C218 4112   1.644   3.621   4.642 -0.3051 -0.5275  0.2744
  158POPC  H18R 4113   1.607   3.651   4.541  1.8071 -1.1900 -0.7549
  158POPC  H18S 4114   1.550   3.619   4.700 -0.6487 -0.4294 -0.2695
  158POPC  H18T 4115   1.684   3.518   4.631  0.7636  0.0847 -2.5721
  158POPC   C33 4116   2.856   3.784   6.230 -0.1674  0.6481  0.2326
  158POPC   H3X 4117   2.767   3.779   6.163 -0.9608  3.3515  0.9779
  158POPC   H3Y 4118   2.872   3.688   6.283  0.5758  1.6523  1.9120
  158POPC   C34 4119   2.991   3.813   6.158 -0.3404  0.3454  0.4068
  158POPC   H4X 4120   3.082   3.798   6.220  0.9396 -2.5851 -1.8956
  158POPC   H4Y 4121   2.992   3.914   6.112  1.2981 -0.2199 -0.8992
  158POPC   C35 4122   3.016   3.729   6.032 -0.4553 -0.9713 -0.4189
  158POPC   H5X 4123   2.942   3.768   5.959  0.5818  3.8516  0.7536
  158POPC   H5Y 4124   3.004   3.620   6.050 -1.9249 -1.1319 -2.0415
  158POPC   C36 4125   3.144   3.764   5.955  0.2061 -0.7526 -0.0174
  158POPC   H6X 4126   3.229   3.722   6.013  1.9352  0.7340 -1.3364
  158POPC   H6Y 4127   3.158   3.874   5.950  1.2814 -0.8811 -0.0456
  158POPC   C37 4128   3.149   3.707   5.806  0.1663  0.1900 -0.2747
  158POPC   H7X 4129   3.149   3.596   5.815  1.3755 -0.0838 -2.8185
  158POPC   H7Y 4130   3.248   3.735   5.765  0.0178  1.4549  0.1812
  158POPC   C38 4131   3.045   3.767   5.710  0.5577 -0.0874 -0.3168
  158POPC   H8X 4132   3.030   3.877   5.720 -2.6142 -0.4083 -0.4245
  158POPC   H8Y 4133   2.941   3.730   5.724 -0.5069  2.9731  0.7234
  158POPC   C39 4134   3.081   3.747   5.563  0.1394 -0.0752  0.0085
  158POPC   H9X 4135   3.079   3.643   5.525 -1.8627 -0.2569  0.4642
  158POPC   H9Y 4136   3.184   3.788   5.562 -0.3717  1.3909  1.4648
  158POPC  C310 4137   2.991   3.831   5.470 -0.8033  0.4579  0.2526
  158POPC  H10X 4138   2.996   3.936   5.505 -1.6669  0.1359  1.3890
  158POPC  H10Y 4139   2.893   3.779   5.479 -0.0302 -0.8841  1.0925
  158POPC  C311 4140   3.050   3.837   5.330 -0.3652 -0.0770  0.3524
  158POPC  H11X 4141   3.046   3.735   5.286 -0.1311 -0.2427  0.7134
  158POPC  H11Y 4142   3.154   3.872   5.311 -0.7330  0.0742 -1.5960
  158POPC  C312 4143   2.967   3.917   5.237 -1.1919  0.4443  0.3344
  158POPC  H12X 4144   2.871   3.872   5.205 -1.0129 -0.3766  0.9149
  158POPC  H12Y 4145   3.021   3.924   5.141 -1.1054 -0.5353  0.2970
  158POPC  C313 4146   2.937   4.064   5.278  1.1782 -0.0970  0.0610
  158POPC  H13X 4147   2.880   4.064   5.373 -0.8161  3.8378 -0.8947
  158POPC  H13Y 4148   2.874   4.109   5.198 -1.8425 -1.3101  1.5963
  158POPC  C314 4149   3.059   4.160   5.278  0.5623  0.1382  0.1594
  158POPC  H14X 4150   3.143   4.111   5.330  0.0743 -0.1286  0.7121
  158POPC  H14Y 4151   3.029   4.248   5.339  0.2896 -1.4853  2.5047
  158POPC  C315 4152   3.106   4.208   5.142 -0.1352  0.0377  0.0709
  158POPC  H15X 4153   3.030   4.272   5.092 -0.5886  1.0602  1.9917
  158POPC  H15Y 4154   3.109   4.115   5.082  0.3315 -0.8261  1.3906
  158POPC  C316 4155   3.246   4.272   5.134 -0.1905  0.3842  0.6927
  158POPC  H16X 4156   3.278   4.277   5.028  3.0664 -1.0837  1.4971
  158POPC  H16Y 4157   3.323   4.212   5.187  2.3353  2.4131 -0.4666
  158POPC  H16Z 4158   3.259   4.367   5.190  3.6630 -1.0062  2.5066
  159POPC     N 4159   4.781   5.840   7.588 -0.0455 -0.3655 -0.6333
  159POPC   C12 4160   4.869   5.830   7.456 -0.7781  0.1129 -0.1908
  159POPC  H12A 4161   4.913   5.733   7.442  2.7980  1.8934 -3.3336
  159POPC  H12B 4162   4.956   5.891   7.476  1.2577 -2.3604 -1.1127
  159POPC   C13 4163   4.865   5.809   7.704  0.0287 -1.0316 -0.0592
  159POPC  H13A 4164   4.811   5.830   7.796  0.8605 -1.9143  0.6482
  159POPC  H13B 4165   4.900   5.708   7.718 -1.3589 -1.1860  3.2496
  159POPC  H13C 4166   4.951   5.874   7.714 -0.3190 -0.7963  1.7062
  159POPC   C14 4167   4.736   5.984   7.599 -0.5760  0.5071 -0.5996
  159POPC  H14A 4168   4.824   6.046   7.606  0.2437 -0.7651  1.6690
  159POPC  H14B 4169   4.679   6.021   7.515 -2.4869 -1.5819 -0.3240
  159POPC  H14C 4170   4.666   5.998   7.680 -0.6560  4.4956 -1.1781
  159POPC   C15 4171   4.665   5.746   7.573 -0.6119  0.4618  0.3039
  159POPC  H15A 4172   4.601   5.739   7.660  0.7818  0.4745  1.3592
  159POPC  H15B 4173   4.702   5.647   7.552 -0.8344  0.8007 -1.9234
  159POPC  H15C 4174   4.607   5.781   7.489 -1.1324  0.1921  0.5455
  159POPC   C11 4175   4.812   5.859   7.316  0.5578  0.4120 -0.8643
  159POPC  H11A 4176   4.722   5.795   7.305 -0.5704  1.8590 -0.4786
  159POPC  H11B 4177   4.892   5.850   7.240 -0.7589 -0.9351 -2.1690
  159POPC     P 4178   4.854   6.126   7.270 -0.1232  0.0146  0.2974
  159POPC   O13 4179   4.996   6.100   7.306 -0.2318 -0.2809  0.2865
  159POPC   O14 4180   4.789   6.242   7.338 -0.5527 -0.2155 -0.5067
  159POPC   O12 4181   4.774   5.995   7.296  0.6725  0.4507 -0.0277
  159POPC   O11 4182   4.842   6.131   7.118 -0.1144 -0.1255 -0.5231
  159POPC    C1 4183   4.716   6.119   7.046  0.6466  0.1501  0.0847
  159POPC    HA 4184   4.703   6.197   6.968 -1.3811  0.7301  0.9362
  159POPC    HB 4185   4.626   6.135   7.109 -1.0772  0.0828 -2.2533
  159POPC    C2 4186   4.704   5.984   6.976 -0.2801 -0.0467  0.5694
  159POPC    HS 4187   4.695   5.903   7.051 -0.3263 -1.8959 -1.3280
  159POPC   O21 4188   4.832   5.967   6.900  0.0111  0.5494 -0.1019
  159POPC   C21 4189   4.876   5.841   6.890 -0.7223 -0.5998 -0.2291
  159POPC   O22 4190   4.836   5.742   6.950 -0.2733 -0.4216 -0.5793
  159POPC   C22 4191   5.000   5.840   6.798  0.6169 -0.1607 -0.3603
  159POPC   H2R 4192   5.067   5.763   6.842  0.5303  0.0113  0.0822
  159POPC   H2S 4193   5.046   5.941   6.797  0.7702 -0.2223  0.1572
  159POPC    C3 4194   4.582   5.973   6.880 -0.5549 -0.1399 -0.1855
  159POPC    HX 4195   4.596   6.055   6.806 -0.4930 -0.3425 -0.3956
  159POPC    HY 4196   4.492   5.995   6.942 -0.8150  0.9332 -0.9105
  159POPC   O31 4197   4.579   5.851   6.801 -0.1491 -0.2069 -0.1925
  159POPC   C31 4198   4.518   5.756   6.882 -0.0062 -0.3060 -0.1894
  159POPC   O32 4199   4.498   5.773   6.997 -0.2600 -0.1998 -0.0985
  159POPC   C32 4200   4.485   5.627   6.796  0.1668  0.1408 -0.8011
  159POPC   H2X 4201   4.431   5.646   6.700 -0.3592 -0.8551 -0.7099
  159POPC   H2Y 4202   4.414   5.574   6.863  0.3426  0.7508 -0.1224
  159POPC   C23 4203   4.951   5.803   6.658 -0.3247  0.2514  0.3781
  159POPC   H3R 4204   4.911   5.889   6.600  0.1889 -0.3779 -0.9627
  159POPC   H3S 4205   4.863   5.735   6.656 -0.1543 -0.0151 -2.2251
  159POPC   C24 4206   5.061   5.727   6.576  0.1719  0.0655  0.0459
  159POPC   H4R 4207   5.010   5.684   6.487 -2.4890  0.4768  1.2848
  159POPC   H4S 4208   5.091   5.637   6.634 -1.7761 -0.9683 -0.4654
  159POPC   C25 4209   5.187   5.811   6.546  0.4159 -0.3365 -0.3093
  159POPC   H5R 4210   5.226   5.855   6.640  1.5657 -0.1934 -0.8328
  159POPC   H5S 4211   5.172   5.891   6.471  2.1066  1.2771  0.9911
  159POPC   C26 4212   5.293   5.721   6.481 -0.0282 -0.4746  0.2556
  159POPC   H6R 4213   5.283   5.617   6.521  1.0998  0.1463  2.3191
  159POPC   H6S 4214   5.396   5.749   6.512 -0.8419  0.6454  2.1132
  159POPC   C27 4215   5.277   5.719   6.328  0.7121  0.4183  1.1054
  159POPC   H7R 4216   5.311   5.816   6.288 -1.5053  0.7684 -0.0573
  159POPC   H7S 4217   5.171   5.719   6.295  0.6358  2.2372  1.2798
  159POPC   C28 4218   5.343   5.607   6.250 -0.1321  0.6310  0.7572
  159POPC   H8R 4219   5.278   5.516   6.252  1.3055 -0.4702 -0.4436
  159POPC   H8S 4220   5.440   5.586   6.299  1.1311 -2.9711 -2.7329
  159POPC   C29 4221   5.374   5.633   6.103  0.3454  0.0598  0.3810
  159POPC   H91 4222   5.472   5.684   6.098  0.4569 -0.1960 -0.0845
  159POPC  C210 4223   5.321   5.574   5.997 -0.2567  0.5655  0.6068
  159POPC  H101 4224   5.362   5.587   5.896  1.7167 -2.6969  0.8542
  159POPC  C211 4225   5.191   5.493   5.989 -0.3744 -0.1839 -0.1844
  159POPC  H11R 4226   5.103   5.560   5.995 -1.2564 -1.1635 -1.6398
  159POPC  H11S 4227   5.182   5.413   6.066 -1.1446 -0.1387 -0.2219
  159POPC  C212 4228   5.168   5.424   5.854 -0.4504  0.6735  0.3160
  159POPC  H12R 4229   5.255   5.362   5.822 -1.3440 -0.8512  0.7186
  159POPC  H12S 4230   5.158   5.514   5.791 -2.9482  0.1939 -0.0682
  159POPC  C213 4231   5.044   5.327   5.850  0.0116  0.2922 -0.0967
  159POPC  H13R 4232   4.961   5.386   5.894 -0.1033 -1.4889  2.3313
  159POPC  H13S 4233   5.059   5.234   5.909  1.5145  1.1905  0.9776
  159POPC  C214 4234   4.999   5.287   5.710  0.2213  0.3322  0.1523
  159POPC  H14R 4235   4.983   5.383   5.655 -0.6773  0.5612  0.7906
  159POPC  H14S 4236   4.906   5.228   5.717  0.7499 -0.4865  0.3886
  159POPC  C215 4237   5.092   5.190   5.639 -0.1739 -0.5160  0.8449
  159POPC  H15R 4238   5.195   5.233   5.638 -0.7961  1.2877 -2.3173
  159POPC  H15S 4239   5.052   5.195   5.535  3.9378  0.2920 -0.8925
  159POPC  C216 4240   5.088   5.047   5.700 -0.1269  0.0122  0.5232
  159POPC  H16R 4241   4.985   5.007   5.709  0.1963 -0.5626  2.0809
  159POPC  H16S 4242   5.128   5.037   5.803 -1.2246  0.5030  1.0067
  159POPC  C217 4243   5.166   4.934   5.622  0.2428  0.0974  0.3021
  159POPC  H17R 4244   5.270   4.974   5.616 -0.2264  1.1313 -1.3901
  159POPC  H17S 4245   5.130   4.936   5.517 -3.6643  1.9358  1.4873
  159POPC  C218 4246   5.156   4.802   5.701  0.4080 -0.5875  0.4737
  159POPC  H18R 4247   5.061   4.753   5.675  0.6280 -0.2985 -0.9341
  159POPC  H18S 4248   5.169   4.817   5.811  1.2426 -0.4234  0.3650
  159POPC  H18T 4249   5.232   4.729   5.666 -0.0464 -0.4655 -0.8103
  159POPC   C33 4250   4.607   5.542   6.759 -1.2524  0.0440 -0.1482
  159POPC   H3X 4251   4.591   5.432   6.762  1.9304 -0.5085  1.3420
  159POPC   H3Y 4252   4.686   5.563   6.834 -0.6074 -2.0899 -0.1662
  159POPC   C34 4253   4.665   5.574   6.623 -0.8528  0.6733  0.2699
  159POPC   H4X 4254   4.770   5.537   6.625 -1.4744 -1.1652  1.1026
  159POPC   H4Y 4255   4.664   5.683   6.603  0.0601  1.3625  3.5202
  159POPC   C35 4256   4.610   5.500   6.503  0.1041  0.0417 -1.0870
  159POPC   H5X 4257   4.500   5.492   6.500  0.0574 -0.5649  0.9834
  159POPC   H5Y 4258   4.648   5.396   6.509 -0.3144 -0.0780 -0.4478
  159POPC   C36 4259   4.665   5.550   6.371 -0.1809  0.0250  0.6140
  159POPC   H6X 4260   4.775   5.541   6.373 -0.1474  0.2609  0.0777
  159POPC   H6Y 4261   4.633   5.656   6.372 -0.7326 -0.1110  2.7594
  159POPC   C37 4262   4.620   5.474   6.247  0.2502 -0.6786 -0.2325
  159POPC   H7X 4263   4.509   5.476   6.254  0.2402  0.2225 -0.5117
  159POPC   H7Y 4264   4.660   5.371   6.236 -0.2487 -0.6997 -2.3199
  159POPC   C38 4265   4.669   5.547   6.120 -0.1941  0.9700 -0.1961
  159POPC   H8X 4266   4.780   5.546   6.130 -0.2588 -1.1103  0.8196
  159POPC   H8Y 4267   4.642   5.654   6.132 -1.7248  0.6587 -0.7255
  159POPC   C39 4268   4.626   5.485   5.994 -0.5538 -0.6209  0.6334
  159POPC   H9X 4269   4.515   5.485   5.999 -0.5230 -0.8057  1.6148
  159POPC   H9Y 4270   4.654   5.378   6.004 -1.8403 -1.0960 -0.6321
  159POPC  C310 4271   4.701   5.544   5.877 -0.1598  0.3682 -0.0741
  159POPC  H10X 4272   4.807   5.512   5.890  0.0539  0.8142 -0.7062
  159POPC  H10Y 4273   4.689   5.654   5.882 -2.9139  0.1003  1.2661
  159POPC  C311 4274   4.647   5.501   5.745  0.0860  0.2492  0.1679
  159POPC  H11X 4275   4.538   5.526   5.744  0.0875  0.4213 -2.4323
  159POPC  H11Y 4276   4.639   5.391   5.737 -2.0546  0.2351  1.4842
  159POPC  C312 4277   4.716   5.571   5.627 -0.1414  0.1491  0.7039
  159POPC  H12X 4278   4.825   5.560   5.645 -0.1238  0.5788  0.8795
  159POPC  H12Y 4279   4.709   5.682   5.628  0.4457  0.2295 -1.2868
  159POPC  C313 4280   4.692   5.506   5.485  0.1319  0.5494 -0.7518
  159POPC  H13X 4281   4.722   5.400   5.496 -1.4712 -0.0425 -1.7952
  159POPC  H13Y 4282   4.763   5.551   5.412 -0.2541 -0.2535 -1.6279
  159POPC  C314 4283   4.552   5.511   5.430  0.7109 -0.0196  0.1184
  159POPC  H14X 4284   4.529   5.619   5.420 -1.1953 -0.3929 -0.0202
  159POPC  H14Y 4285   4.483   5.473   5.509 -2.1426 -2.4293 -3.2164
  159POPC  C315 4286   4.535   5.451   5.288 -0.1246 -0.6406  0.8952
  159POPC  H15X 4287   4.428   5.473   5.266 -0.5062 -1.2833  2.0307
  159POPC  H15Y 4288   4.545   5.340   5.285  0.0373 -0.6188 -0.9327
  159POPC  C316 4289   4.647   5.502   5.194  0.5423  0.1205  0.0094
  159POPC  H16X 4290   4.665   5.611   5.205  2.2805 -0.2777  1.8254
  159POPC  H16Y 4291   4.629   5.474   5.088  2.0893 -1.9566  0.2337
  159POPC  H16Z 4292   4.744   5.456   5.224  1.8169  3.8766  2.4639
  160POPC     N 4293   5.161   4.104   6.815 -0.2270 -0.3688  0.1299
  160POPC   C12 4294   5.300   4.149   6.821 -0.4518  0.5862 -0.0518
  160POPC  H12A 4295   5.370   4.068   6.817 -0.9852  0.1079  0.1432
  160POPC  H12B 4296   5.314   4.190   6.920 -3.5711  1.6342  0.0780
  160POPC   C13 4297   5.069   4.192   6.889  0.5281 -0.1556  0.3231
  160POPC  H13A 4298   4.966   4.164   6.874  0.4608  0.9684 -1.6505
  160POPC  H13B 4299   5.077   4.200   6.997 -0.1283  1.4474  0.2887
  160POPC  H13C 4300   5.063   4.295   6.858 -3.5583 -0.5185 -0.7444
  160POPC   C14 4301   5.111   4.083   6.677  1.2969 -0.1889  0.0153
  160POPC  H14A 4302   5.183   4.041   6.608  0.6787  2.3662 -2.3444
  160POPC  H14B 4303   5.027   4.015   6.673  0.5489  0.7804 -2.9039
  160POPC  H14C 4304   5.090   4.177   6.629 -1.5415 -1.1629 -0.8319
  160POPC   C15 4305   5.153   3.976   6.889 -1.3451  0.2015 -0.0240
  160POPC  H15A 4306   5.220   3.904   6.843 -1.4442 -1.2802  2.0231
  160POPC  H15B 4307   5.055   3.936   6.872 -2.1010  2.3520 -1.1387
  160POPC  H15C 4308   5.182   3.979   6.993 -1.4005 -0.7528  0.0280
  160POPC   C11 4309   5.358   4.257   6.723  0.6309 -0.0940 -1.0280
  160POPC  H11A 4310   5.303   4.352   6.742 -0.5342 -0.9070 -0.1740
  160POPC  H11B 4311   5.352   4.236   6.614  0.0206  1.0986 -1.2519
  160POPC     P 4312   5.598   4.360   6.708 -0.4400  0.5207 -0.1757
  160POPC   O13 4313   5.725   4.311   6.764  0.5723 -0.1470 -0.1287
  160POPC   O14 4314   5.555   4.496   6.744 -0.5684  0.4447 -0.3089
  160POPC   O12 4315   5.491   4.266   6.769  0.1981 -0.2422 -0.3520
  160POPC   O11 4316   5.588   4.337   6.550 -0.3793 -0.7601  0.3759
  160POPC    C1 4317   5.621   4.208   6.494 -0.2544  0.0384 -0.7901
  160POPC    HA 4318   5.547   4.129   6.520 -0.3763 -0.2445 -1.9277
  160POPC    HB 4319   5.721   4.194   6.539 -0.5280  2.0205  0.5937
  160POPC    C2 4320   5.621   4.202   6.339  0.6858  0.3008  0.2665
  160POPC    HS 4321   5.659   4.102   6.310  0.6281  0.2800  0.2639
  160POPC   O21 4322   5.710   4.311   6.293  0.3209  0.2899  0.4574
  160POPC   C21 4323   5.841   4.292   6.308  0.1715 -0.4918  0.4637
  160POPC   O22 4324   5.894   4.191   6.338 -0.6001  0.0385 -0.4888
  160POPC   C22 4325   5.915   4.412   6.249  0.7591  0.3280  0.1963
  160POPC   H2R 4326   5.978   4.438   6.337 -1.9206  1.3014  1.9468
  160POPC   H2S 4327   5.852   4.500   6.225  0.2306 -0.2806 -0.6784
  160POPC    C3 4328   5.472   4.221   6.284 -0.1158  0.1174 -0.3062
  160POPC    HX 4329   5.426   4.305   6.340 -3.3744 -0.1577 -2.3430
  160POPC    HY 4330   5.409   4.134   6.311 -0.6215  1.0558  1.6925
  160POPC   O31 4331   5.469   4.226   6.139  0.4137  0.5349 -0.0927
  160POPC   C31 4332   5.471   4.357   6.102  0.1488  0.5526  0.2806
  160POPC   O32 4333   5.504   4.449   6.175 -0.0856  0.6904 -0.5510
  160POPC   C32 4334   5.441   4.363   5.959 -0.9628  0.1122 -0.3718
  160POPC   H2X 4335   5.337   4.327   5.941 -1.6084  0.9659  1.3270
  160POPC   H2Y 4336   5.512   4.290   5.915  1.7386  0.9129  2.2867
  160POPC   C23 4337   5.984   4.373   6.119  0.5700 -0.0952 -0.1145
  160POPC   H3R 4338   6.052   4.290   6.145 -1.7600 -1.7489  1.0295
  160POPC   H3S 4339   6.053   4.456   6.091  3.0372 -1.9217  0.2189
  160POPC   C24 4340   5.879   4.346   6.011 -0.3293 -1.0259 -0.3373
  160POPC   H4R 4341   5.830   4.440   5.978 -2.6521 -2.6306 -1.8064
  160POPC   H4S 4342   5.795   4.275   6.028  0.2427 -1.7548 -0.5050
  160POPC   C25 4343   5.940   4.295   5.878  0.5071 -0.1834 -0.4026
  160POPC   H5R 4344   6.002   4.208   5.907  0.0905  0.0889  1.3765
  160POPC   H5S 4345   6.010   4.369   5.833  0.0203  1.6124  1.6332
  160POPC   C26 4346   5.841   4.256   5.768 -0.0788 -0.9144  0.0731
  160POPC   H6R 4347   5.795   4.354   5.743 -2.7324 -2.1857 -0.3467
  160POPC   H6S 4348   5.760   4.197   5.816  0.5462 -1.8162  0.0399
  160POPC   C27 4349   5.902   4.193   5.649 -0.3203  0.1055 -0.0063
  160POPC   H7R 4350   5.929   4.089   5.680 -0.0399 -0.2731 -1.4336
  160POPC   H7S 4351   5.991   4.258   5.639 -0.7294  0.4249 -2.2048
  160POPC   C28 4352   5.820   4.217   5.521  0.0808 -0.2340 -0.1790
  160POPC   H8R 4353   5.720   4.169   5.521 -0.0165 -0.3872 -4.2603
  160POPC   H8S 4354   5.873   4.159   5.442  2.2757  0.2797  0.8268
  160POPC   C29 4355   5.823   4.360   5.480 -0.3336  0.0748  0.7507
  160POPC   H91 4356   5.925   4.399   5.471 -0.8361  2.1319  2.8809
  160POPC  C210 4357   5.726   4.421   5.412  0.5879  0.0499 -0.3757
  160POPC  H101 4358   5.741   4.528   5.389  0.6155  0.4153  1.2373
  160POPC  C211 4359   5.582   4.363   5.377 -0.5432 -0.4608 -0.6971
  160POPC  H11R 4360   5.507   4.445   5.375 -1.1567 -0.9967 -0.2131
  160POPC  H11S 4361   5.552   4.303   5.466  1.0362  1.5493  1.3437
  160POPC  C212 4362   5.565   4.304   5.242  0.7713  0.8179  0.2855
  160POPC  H12R 4363   5.621   4.208   5.232 -1.8162 -0.6662 -1.1193
  160POPC  H12S 4364   5.590   4.379   5.164  1.0895  0.7611  0.3319
  160POPC  C213 4365   5.418   4.273   5.210  0.5683  0.5410  0.2073
  160POPC  H13R 4366   5.369   4.373   5.215  0.6854  0.5389  3.1749
  160POPC  H13S 4367   5.378   4.218   5.298  0.9748  0.0956  0.1205
  160POPC  C214 4368   5.389   4.199   5.073  0.0960 -0.0463 -0.1026
  160POPC  H14R 4369   5.404   4.091   5.092 -0.5889 -0.4411 -1.6008
  160POPC  H14S 4370   5.459   4.243   4.998  0.0095 -1.8384 -1.2943
  160POPC  C215 4371   5.245   4.209   5.018  0.0295 -0.1122  0.1324
  160POPC  H15R 4372   5.209   4.309   5.050  1.4899  0.7885 -0.9592
  160POPC  H15S 4373   5.173   4.139   5.067  0.5558  0.1534  1.3327
  160POPC  C216 4374   5.230   4.194   4.862  0.2213  0.1490  0.0707
  160POPC  H16R 4375   5.275   4.098   4.828 -1.3740 -0.6903  0.2228
  160POPC  H16S 4376   5.281   4.284   4.821  0.8608 -0.0582  0.3953
  160POPC  C217 4377   5.080   4.192   4.822  0.3715 -0.9773 -0.1453
  160POPC  H17R 4378   5.023   4.133   4.896  2.1944 -1.8712  0.6178
  160POPC  H17S 4379   5.073   4.155   4.718  1.5550 -0.7703 -0.3168
  160POPC  C218 4380   5.032   4.335   4.824 -0.0806 -1.0780 -0.3372
  160POPC  H18R 4381   5.072   4.392   4.737 -0.1775  1.6432  1.2893
  160POPC  H18S 4382   5.068   4.391   4.913 -0.0283 -1.1449 -0.3160
  160POPC  H18T 4383   4.922   4.346   4.816  0.1169  0.6143 -1.2797
  160POPC   C33 4384   5.480   4.505   5.899  0.5553 -0.0444 -0.7563
  160POPC   H3X 4385   5.587   4.519   5.926  0.5192  0.1059 -0.6927
  160POPC   H3Y 4386   5.404   4.581   5.927 -0.7297 -0.6621 -2.3893
  160POPC   C34 4387   5.483   4.499   5.741  0.3958 -0.7272 -0.2579
  160POPC   H4X 4388   5.378   4.482   5.710  0.4959 -1.6712 -0.1086
  160POPC   H4Y 4389   5.549   4.415   5.711 -0.9984 -3.2781  3.1068
  160POPC   C35 4390   5.521   4.643   5.692 -0.5851  0.0287  1.0029
  160POPC   H5X 4391   5.453   4.721   5.730 -0.0582  1.5758 -1.0571
  160POPC   H5Y 4392   5.505   4.650   5.582  1.7085 -0.3760  0.5944
  160POPC   C36 4393   5.655   4.701   5.727 -0.1951 -0.4143  0.2256
  160POPC   H6X 4394   5.743   4.633   5.731  0.1726  0.0046 -0.5208
  160POPC   H6Y 4395   5.659   4.755   5.823 -1.7164  0.7419 -0.3142
  160POPC   C37 4396   5.686   4.817   5.629  0.5991  0.1875  0.0408
  160POPC   H7X 4397   5.682   4.779   5.525  0.8561  1.6046 -0.5114
  160POPC   H7Y 4398   5.789   4.856   5.645 -0.3261  1.5924  3.5321
  160POPC   C38 4399   5.601   4.941   5.653 -0.0783  0.7887  0.4434
  160POPC   H8X 4400   5.609   4.970   5.760 -1.4218  0.3119  0.6963
  160POPC   H8Y 4401   5.493   4.920   5.637 -0.1968 -0.6809  2.6222
  160POPC   C39 4402   5.634   5.049   5.555  0.6696  0.1542 -0.4029
  160POPC   H9X 4403   5.648   5.002   5.456  0.0634 -1.8649  0.4145
  160POPC   H9Y 4404   5.729   5.094   5.591  0.6095  0.4650 -0.6347
  160POPC  C310 4405   5.523   5.164   5.546  0.0381  0.4719  0.2235
  160POPC  H10X 4406   5.430   5.104   5.543 -0.0789  0.6820 -0.6946
  160POPC  H10Y 4407   5.539   5.226   5.455  1.6119  1.6439  1.2407
  160POPC  C311 4408   5.511   5.255   5.670  0.1602  0.6466  0.4067
  160POPC  H11X 4409   5.510   5.202   5.768 -2.1745 -0.9351 -0.3912
  160POPC  H11Y 4410   5.414   5.309   5.668  0.9344  2.1671 -2.3661
  160POPC  C312 4411   5.629   5.346   5.676  0.1217  0.4419  0.1745
  160POPC  H12X 4412   5.624   5.416   5.590  0.2962 -1.1957 -1.2189
  160POPC  H12Y 4413   5.726   5.292   5.684 -0.4547 -1.0066 -1.8249
  160POPC  C313 4414   5.637   5.448   5.792  0.3677  0.2598  0.0518
  160POPC  H13X 4415   5.659   5.392   5.885  1.1145  0.4860  0.0146
  160POPC  H13Y 4416   5.538   5.495   5.809 -0.1480 -0.6373 -0.4061
  160POPC  C314 4417   5.748   5.546   5.749  0.2095 -0.4845  0.0286
  160POPC  H14X 4418   5.711   5.609   5.665  0.8782 -0.7925 -0.5090
  160POPC  H14Y 4419   5.847   5.502   5.721 -0.3099  0.0471 -2.9130
  160POPC  C315 4420   5.785   5.650   5.853 -0.1143 -0.2417  0.4684
  160POPC  H15X 4421   5.694   5.686   5.904 -0.7872  0.1775 -0.9712
  160POPC  H15Y 4422   5.827   5.740   5.802 -1.7337  0.1406 -0.2560
  160POPC  C316 4423   5.893   5.602   5.950 -0.3325 -0.1725 -0.5509
  160POPC  H16X 4424   5.935   5.693   5.999 -2.0472  0.4804 -0.2049
  160POPC  H16Y 4425   5.974   5.546   5.899  0.8343 -0.4168  1.4503
  160POPC  H16Z 4426   5.850   5.530   6.023  0.8784  0.1503  0.5256
  161POPC     N 4427   1.127   0.901   6.705 -0.2311 -0.2743  0.4482
  161POPC   C12 4428   1.037   0.934   6.587  0.1980  1.3196 -0.3409
  161POPC  H12A 4429   1.092   1.002   6.524  0.2085  1.4596 -0.1821
  161POPC  H12B 4430   0.952   0.992   6.621 -0.0386  1.6833 -1.5079
  161POPC   C13 4431   1.275   0.886   6.667  0.4985 -0.0612 -0.4271
  161POPC  H13A 4432   1.313   0.972   6.613 -1.5170  1.3735  0.3487
  161POPC  H13B 4433   1.329   0.867   6.759  0.3853  1.9525  0.1171
  161POPC  H13C 4434   1.288   0.806   6.597  3.6348  0.0984 -0.1695
  161POPC   C14 4435   1.121   1.005   6.802 -0.0143 -0.5078  0.1662
  161POPC  H14A 4436   1.020   1.032   6.829 -0.0013 -0.6846  0.3881
  161POPC  H14B 4437   1.175   0.982   6.893 -1.3396 -0.1811  1.0537
  161POPC  H14C 4438   1.165   1.093   6.757 -3.6496  0.7799 -1.2051
  161POPC   C15 4439   1.071   0.774   6.775 -0.3494  1.0627 -0.3552
  161POPC  H15A 4440   1.138   0.759   6.859 -0.0897  1.6623 -0.4486
  161POPC  H15B 4441   1.068   0.686   6.713  0.4833  0.5994  0.2342
  161POPC  H15C 4442   0.971   0.783   6.815  0.8848  1.5113  3.0517
  161POPC   C11 4443   0.987   0.824   6.499 -0.0112  0.8288  0.1013
  161POPC  H11A 4444   0.922   0.864   6.418 -1.2893  1.4837  1.3852
  161POPC  H11B 4445   0.925   0.747   6.550 -0.0914  0.2110 -0.9018
  161POPC     P 4446   1.167   0.813   6.316  0.2830  0.1431  0.3646
  161POPC   O13 4447   1.284   0.727   6.274 -0.7816  0.1208  0.1127
  161POPC   O14 4448   1.189   0.961   6.334 -0.0970  0.0560  0.1808
  161POPC   O12 4449   1.091   0.755   6.442 -0.6280  0.0225  0.0560
  161POPC   O11 4450   1.056   0.806   6.203 -0.2085  0.0305 -0.0532
  161POPC    C1 4451   0.989   0.691   6.154 -0.3154 -0.0594 -0.0631
  161POPC    HA 4452   0.891   0.685   6.206 -0.6001  1.1823 -0.4225
  161POPC    HB 4453   1.055   0.601   6.152 -0.2648 -0.0427  0.7198
  161POPC    C2 4454   0.970   0.713   5.997 -0.1616 -0.0223 -0.5009
  161POPC    HS 4455   0.933   0.617   5.955 -2.3727  1.1074 -1.2805
  161POPC   O21 4456   1.091   0.761   5.934  0.2562 -0.0686 -0.1763
  161POPC   C21 4457   1.206   0.700   5.953  0.0616 -0.0707  0.3351
  161POPC   O22 4458   1.222   0.585   5.995 -0.7814 -0.1656  0.2838
  161POPC   C22 4459   1.318   0.800   5.911 -0.2696  0.2962  0.3986
  161POPC   H2R 4460   1.363   0.772   5.814 -1.0159 -0.0879  0.1523
  161POPC   H2S 4461   1.387   0.801   5.998 -0.2288  1.2570  0.3703
  161POPC    C3 4462   0.859   0.820   5.973 -0.1961 -1.0634  0.0731
  161POPC    HX 4463   0.897   0.906   6.033  0.7727 -1.2408 -0.2589
  161POPC    HY 4464   0.770   0.780   6.025  0.8344 -2.3686  0.9033
  161POPC   O31 4465   0.849   0.846   5.832 -0.5131 -0.0742 -0.4577
  161POPC   C31 4466   0.837   0.968   5.789 -0.4532  0.5033 -0.1118
  161POPC   O32 4467   0.857   1.069   5.850  0.1664 -0.0497  0.1902
  161POPC   C32 4468   0.810   0.964   5.638 -0.1577  0.0573 -0.1852
  161POPC   H2X 4469   0.721   0.903   5.612 -2.0456  1.5451  2.2657
  161POPC   H2Y 4470   0.898   0.914   5.594 -0.8612 -1.0941 -0.3267
  161POPC   C23 4471   1.268   0.948   5.887 -0.1974  0.8578  0.5403
  161POPC   H3R 4472   1.354   1.017   5.904 -0.1325  0.0081  4.7560
  161POPC   H3S 4473   1.189   0.984   5.956 -0.3752  1.8910 -0.1737
  161POPC   C24 4474   1.239   0.968   5.737 -0.1236  0.1934  0.3465
  161POPC   H4R 4475   1.157   0.904   5.697  1.5294 -0.7947 -1.6530
  161POPC   H4S 4476   1.327   0.933   5.678  0.4077 -0.7077  1.6112
  161POPC   C25 4477   1.218   1.120   5.702  0.5776  0.2472 -0.4902
  161POPC   H5R 4478   1.303   1.178   5.744  1.1440 -0.4964 -0.5974
  161POPC   H5S 4479   1.124   1.155   5.750  1.0862  1.0171 -0.0143
  161POPC   C26 4480   1.199   1.146   5.555  0.3627  0.3180 -0.2429
  161POPC   H6R 4481   1.096   1.119   5.523 -0.3478  1.7578  0.7419
  161POPC   H6S 4482   1.269   1.086   5.491 -0.6988 -3.7072  2.0314
  161POPC   C27 4483   1.216   1.298   5.517 -0.0181 -0.0798  0.1038
  161POPC   H7R 4484   1.223   1.335   5.412  0.9697  0.5969  0.4063
  161POPC   H7S 4485   1.311   1.332   5.562 -0.7429  2.0184  0.1625
  161POPC   C28 4486   1.100   1.386   5.574  0.5115  0.2849  0.1886
  161POPC   H8R 4487   1.060   1.334   5.663 -0.5124 -1.7957 -1.3887
  161POPC   H8S 4488   1.010   1.371   5.511  1.1477 -0.3834 -0.5956
  161POPC   C29 4489   1.130   1.533   5.595  0.1810  0.3771  0.2479
  161POPC   H91 4490   1.230   1.545   5.640  0.9786  1.9520 -1.8159
  161POPC  C210 4491   1.054   1.638   5.571  0.1408 -0.0924  0.6712
  161POPC  H101 4492   1.087   1.742   5.586  0.1730 -0.0619  0.3963
  161POPC  C211 4493   0.910   1.627   5.535  0.0885  0.3686  0.6483
  161POPC  H11R 4494   0.857   1.704   5.594 -0.4737  1.6744 -1.4425
  161POPC  H11S 4495   0.869   1.530   5.572 -2.7084  0.8365 -0.9091
  161POPC  C212 4496   0.887   1.641   5.384 -0.6866  0.6204  0.3024
  161POPC  H12R 4497   0.778   1.633   5.365 -1.0212  2.8029  0.9359
  161POPC  H12S 4498   0.938   1.563   5.324 -1.0855 -0.0084  0.7781
  161POPC  C213 4499   0.929   1.775   5.328 -0.3865 -0.0409 -0.0979
  161POPC  H13R 4500   1.038   1.768   5.312  0.1391  0.7907  2.6652
  161POPC  H13S 4501   0.923   1.842   5.416  1.4499  0.3352 -0.2349
  161POPC  C214 4502   0.844   1.836   5.217  0.2689 -0.1872 -0.2769
  161POPC  H14R 4503   0.888   1.931   5.181  0.3406 -0.2734 -0.4216
  161POPC  H14S 4504   0.740   1.852   5.252 -0.4322 -0.6013 -2.0332
  161POPC  C215 4505   0.827   1.746   5.091 -0.2258 -0.3232 -0.0877
  161POPC  H15R 4506   0.815   1.643   5.130 -0.4767 -0.5382 -0.7120
  161POPC  H15S 4507   0.920   1.758   5.031 -1.3532  1.4550 -1.6078
  161POPC  C216 4508   0.716   1.801   5.001  0.5467  0.0245  0.8955
  161POPC  H16R 4509   0.740   1.746   4.907 -1.1532 -0.2030  0.5616
  161POPC  H16S 4510   0.731   1.911   4.993  1.5411 -0.0242  1.8155
  161POPC  C217 4511   0.573   1.772   5.049  0.3107  0.0196  0.2089
  161POPC  H17R 4512   0.560   1.827   5.145  1.2255 -0.7001  0.7644
  161POPC  H17S 4513   0.559   1.664   5.071  0.8844  0.1390  1.2280
  161POPC  C218 4514   0.472   1.801   4.935 -0.1338  0.2099 -0.0143
  161POPC  H18R 4515   0.374   1.801   4.986 -0.6657 -1.7267 -0.9490
  161POPC  H18S 4516   0.482   1.722   4.858  1.2501 -1.4846  1.8046
  161POPC  H18T 4517   0.487   1.901   4.887 -1.5323 -0.1152 -1.1899
  161POPC   C33 4518   0.774   1.100   5.570 -0.0022  0.1811  0.3543
  161POPC   H3X 4519   0.847   1.177   5.602 -0.5814 -0.0168  2.3189
  161POPC   H3Y 4520   0.673   1.125   5.609 -0.7241 -0.0435 -1.2771
  161POPC   C34 4521   0.780   1.091   5.418  0.3426 -0.2718 -0.1337
  161POPC   H4X 4522   0.706   1.019   5.377  1.1588 -1.4778  0.4691
  161POPC   H4Y 4523   0.880   1.066   5.378  0.6699  1.9950 -0.8588
  161POPC   C35 4524   0.730   1.217   5.346 -1.0825  0.0756 -0.2822
  161POPC   H5X 4525   0.770   1.303   5.403  0.1814 -0.5895 -0.1349
  161POPC   H5Y 4526   0.619   1.219   5.348 -1.1294 -1.6404  0.5448
  161POPC   C36 4527   0.773   1.220   5.199  1.0472 -0.4369 -0.2288
  161POPC   H6X 4528   0.760   1.119   5.154  2.9574 -1.6232  1.7176
  161POPC   H6Y 4529   0.881   1.242   5.192  0.7254  0.8719 -1.4431
  161POPC   C37 4530   0.690   1.319   5.120 -0.4635  0.0118  0.8721
  161POPC   H7X 4531   0.721   1.425   5.134 -1.6530  0.5386 -0.1795
  161POPC   H7Y 4532   0.581   1.312   5.141 -0.7520 -2.7861 -0.9529
  161POPC   C38 4533   0.704   1.291   4.966 -0.0292 -0.3521 -0.4442
  161POPC   H8X 4534   0.684   1.186   4.935  2.8631 -2.0011  2.6816
  161POPC   H8Y 4535   0.806   1.322   4.935 -0.0504  1.0484  0.7526
  161POPC   C39 4536   0.613   1.380   4.885 -0.0679  0.9099 -0.1258
  161POPC   H9X 4537   0.638   1.488   4.893  0.5897  0.6776  1.3680
  161POPC   H9Y 4538   0.512   1.373   4.932  0.7360  1.6226  1.8084
  161POPC  C310 4539   0.596   1.336   4.743 -0.1391  0.1956  0.2764
  161POPC  H10X 4540   0.583   1.226   4.739  1.4412 -0.0448  0.7511
  161POPC  H10Y 4541   0.690   1.365   4.691  0.5046 -2.1611  0.0450
  161POPC  C311 4542   0.469   1.395   4.671 -0.0602  0.0740  0.1853
  161POPC  H11X 4543   0.483   1.504   4.661  1.0221 -0.1539 -0.9991
  161POPC  H11Y 4544   0.387   1.387   4.745  0.6168 -1.5138  0.8156
  161POPC  C312 4545   0.441   1.327   4.532 -0.1716 -0.5130 -0.7318
  161POPC  H12X 4546   0.439   1.217   4.543  2.8283 -0.6044 -0.2207
  161POPC  H12Y 4547   0.534   1.339   4.471 -0.2992  0.5041 -0.7468
  161POPC  C313 4548   0.325   1.375   4.457 -0.5834 -0.1387  0.2357
  161POPC  H13X 4549   0.345   1.480   4.427  0.5818 -0.3010  0.3838
  161POPC  H13Y 4550   0.230   1.379   4.515 -1.1582 -0.1448 -0.6858
  161POPC  C314 4551   0.302   1.296   4.327 -0.4303 -0.0673 -0.2018
  161POPC  H14X 4552   0.276   1.191   4.352  0.0496 -0.4224 -1.1116
  161POPC  H14Y 4553   0.393   1.295   4.262  0.0072 -0.4755  0.4136
  161POPC  C315 4554   0.188   1.363   4.248  0.0345  0.0907  0.1472
  161POPC  H15X 4555   0.211   1.467   4.215  3.5659  0.0192  1.9509
  161POPC  H15Y 4556   0.096   1.380   4.308 -0.5209 -0.9422 -0.3887
  161POPC  C316 4557   0.134   1.280   4.125 -0.2240 -0.0777  0.4596
  161POPC  H16X 4558   0.217   1.230   4.070  0.1765  1.8932 -0.8651
  161POPC  H16Y 4559   0.082   1.355   4.060  2.2129  0.4374 -1.0144
  161POPC  H16Z 4560   0.066   1.198   4.154  0.9144 -0.7231  1.3626
  162POPC     N 4561   0.394   2.401   6.878 -0.4322 -0.0124 -0.1786
  162POPC   C12 4562   0.387   2.342   6.739 -0.7721 -0.1178  0.3802
  162POPC  H12A 4563   0.285   2.365   6.712 -0.7165  0.0115  0.2803
  162POPC  H12B 4564   0.410   2.237   6.746  2.4443  0.5803  3.6408
  162POPC   C13 4565   0.299   2.327   6.962  0.3808 -0.5964 -0.4037
  162POPC  H13A 4566   0.195   2.339   6.937  0.1014 -2.8416 -0.6004
  162POPC  H13B 4567   0.325   2.222   6.971 -1.3099 -1.3071 -2.7418
  162POPC  H13C 4568   0.297   2.364   7.063 -1.7896 -0.1894 -0.5600
  162POPC   C14 4569   0.530   2.376   6.937  0.0374  0.0728  0.3120
  162POPC  H14A 4570   0.612   2.384   6.868  0.7466  1.2509  1.2533
  162POPC  H14B 4571   0.546   2.455   7.009 -1.1755 -1.7393  2.7022
  162POPC  H14C 4572   0.539   2.288   7.000 -0.0706 -0.2898 -0.1713
  162POPC   C15 4573   0.369   2.552   6.887 -0.1164 -0.7028 -0.1141
  162POPC  H15A 4574   0.444   2.604   6.829 -0.2741  0.5646  0.7891
  162POPC  H15B 4575   0.373   2.585   6.989 -0.5099  0.1145 -0.3573
  162POPC  H15C 4576   0.269   2.562   6.846 -0.4348  0.6725  0.9463
  162POPC   C11 4577   0.476   2.410   6.627  0.3080 -0.6971 -0.1897
  162POPC  H11A 4578   0.445   2.516   6.615  0.1886 -0.6226  0.7425
  162POPC  H11B 4579   0.457   2.354   6.532 -1.5996  2.3814 -1.7930
  162POPC     P 4580   0.725   2.502   6.583  0.5301  0.6828  0.0570
  162POPC   O13 4581   0.855   2.487   6.650 -0.1724 -0.1726  0.0807
  162POPC   O14 4582   0.662   2.637   6.580  0.7510 -0.4034 -0.3503
  162POPC   O12 4583   0.621   2.395   6.655 -0.4192 -0.0646  0.3269
  162POPC   O11 4584   0.738   2.436   6.430 -0.1485 -0.0588 -0.6836
  162POPC    C1 4585   0.852   2.453   6.346 -0.6493 -0.0930  0.1653
  162POPC    HA 4586   0.845   2.375   6.267  1.5850 -2.7629  2.4137
  162POPC    HB 4587   0.946   2.431   6.400 -1.2063  0.4092  1.3702
  162POPC    C2 4588   0.848   2.590   6.274 -0.0120 -0.2523  0.2197
  162POPC    HS 4589   0.834   2.673   6.348  0.8374 -1.4829  1.8225
  162POPC   O21 4590   0.730   2.596   6.188  0.0739  0.1733 -0.4677
  162POPC   C21 4591   0.672   2.718   6.162  0.2821  0.3573 -1.1260
  162POPC   O22 4592   0.706   2.826   6.205 -0.4041  0.3593 -0.3593
  162POPC   C22 4593   0.549   2.691   6.070 -0.3831  0.0967  0.3900
  162POPC   H2R 4594   0.457   2.696   6.132 -1.6424 -1.1484 -1.2777
  162POPC   H2S 4595   0.557   2.585   6.036 -2.3165 -0.6737  2.1472
  162POPC    C3 4596   0.979   2.628   6.192 -0.0539 -0.3792  0.4069
  162POPC    HX 4597   1.002   2.537   6.132  1.1510  0.1003  0.1029
  162POPC    HY 4598   1.072   2.638   6.252 -0.5131 -0.7200  1.1909
  162POPC   O31 4599   0.968   2.738   6.097  0.5540 -0.0710  0.0813
  162POPC   C31 4600   1.013   2.854   6.146 -0.2596  0.3433  0.2947
  162POPC   O32 4601   1.070   2.864   6.254 -0.0274 -0.7547  0.4991
  162POPC   C32 4602   0.993   2.962   6.043  0.3583 -0.3791  0.0056
  162POPC   H2X 4603   1.087   3.021   6.051  0.8728 -1.1085 -0.5641
  162POPC   H2Y 4604   0.902   3.022   6.064  1.3779  0.7291  1.4551
  162POPC   C23 4605   0.534   2.785   5.955  0.8396 -0.0576  1.1431
  162POPC   H3R 4606   0.632   2.816   5.914  0.7573  0.1038  1.0672
  162POPC   H3S 4607   0.475   2.870   5.994 -3.4224 -2.6388  1.0188
  162POPC   C24 4608   0.444   2.721   5.850  0.4299 -0.2115 -0.1715
  162POPC   H4R 4609   0.337   2.725   5.880  0.5995  0.0605  0.4082
  162POPC   H4S 4610   0.481   2.617   5.840  3.5784  0.7344  0.4443
  162POPC   C25 4611   0.449   2.788   5.714 -0.1365 -0.2516 -0.2985
  162POPC   H5R 4612   0.556   2.798   5.685  0.2812  2.1154  1.7649
  162POPC   H5S 4613   0.404   2.889   5.720 -2.5588 -1.3336  0.8296
  162POPC   C26 4614   0.360   2.724   5.609  0.1911 -0.0777 -0.5448
  162POPC   H6R 4615   0.260   2.696   5.647 -0.2312  0.5174 -1.1951
  162POPC   H6S 4616   0.408   2.630   5.575 -0.5727  0.5238 -3.5262
  162POPC   C27 4617   0.337   2.807   5.484  0.2777 -0.0711  0.7419
  162POPC   H7R 4618   0.429   2.835   5.428 -1.1877  1.3477 -1.0900
  162POPC   H7S 4619   0.290   2.905   5.505 -1.3095 -1.0943  2.1643
  162POPC   C28 4620   0.252   2.717   5.384 -0.5767 -0.4420 -0.7932
  162POPC   H8R 4621   0.307   2.622   5.369 -1.7981 -1.5557  1.3800
  162POPC   H8S 4622   0.250   2.774   5.288  0.3377  3.7758  1.4386
  162POPC   C29 4623   0.108   2.688   5.422 -0.1140  0.1740 -0.4248
  162POPC   H91 4624   0.069   2.734   5.514  3.1075  3.1618 -0.3826
  162POPC  C210 4625   6.476   2.594   5.360  0.3523 -0.3534  0.6756
  162POPC  H101 4626   6.378   2.566   5.402  0.4242 -1.0594  0.3886
  162POPC  C211 4627   0.074   2.512   5.243 -0.2995 -0.4261  0.1029
  162POPC  H11R 4628   0.024   2.413   5.236 -3.3561  0.9500  0.7263
  162POPC  H11S 4629   0.184   2.521   5.234 -0.5309  2.4992 -1.0741
  162POPC  C212 4630   6.466   2.564   5.106 -0.2775 -0.0058  0.3516
  162POPC  H12R 4631   6.495   2.670   5.094  1.1152 -0.1511  2.0911
  162POPC  H12S 4632   6.355   2.555   5.103 -0.2828 -0.0589  0.6907
  162POPC  C213 4633   0.068   2.488   4.979  0.1751 -0.3949 -0.6598
  162POPC  H13R 4634   0.009   2.395   4.984  1.4648 -1.2555 -0.9784
  162POPC  H13S 4635   0.176   2.469   5.000  0.0130 -2.1771 -1.3044
  162POPC  C214 4636   0.040   2.572   4.853  0.0919  0.4592  0.1102
  162POPC  H14R 4637   0.093   2.666   4.878  1.8495 -0.5052  0.1646
  162POPC  H14S 4638  -0.069   2.594   4.853  0.0890  0.4945  1.0033
  162POPC  C215 4639   0.078   2.507   4.720 -0.1533  0.2629  0.6117
  162POPC  H15R 4640   0.044   2.402   4.728 -1.2715  0.6781  1.5342
  162POPC  H15S 4641   0.188   2.518   4.712  0.0063 -1.7427 -0.6104
  162POPC  C216 4642   6.457   2.574   4.594  0.4649  0.0742  0.2414
  162POPC  H16R 4643   6.514   2.670   4.590  3.2778 -1.5302 -3.1570
  162POPC  H16S 4644   6.347   2.587   4.596  0.3771 -0.6840  0.3359
  162POPC  C217 4645   0.046   2.495   4.470 -0.5185 -0.5571  0.4612
  162POPC  H17R 4646  -0.011   2.402   4.491  0.1739 -1.4840 -1.5537
  162POPC  H17S 4647   0.156   2.483   4.478 -0.7211 -1.7961  1.7142
  162POPC  C218 4648   6.436   2.542   4.333 -0.6908  0.8150  0.0171
  162POPC  H18R 4649   6.494   2.610   4.267  1.5625 -2.4874 -1.6702
  162POPC  H18S 4650   6.332   2.577   4.350 -0.5606  0.2928  2.2386
  162POPC  H18T 4651   6.431   2.453   4.267  0.8262  0.7631 -0.0651
  162POPC   C33 4652   0.998   2.917   5.892 -0.1052 -0.0715  0.6354
  162POPC   H3X 4653   0.938   2.827   5.864 -0.0324  0.0961 -0.0683
  162POPC   H3Y 4654   1.106   2.891   5.883  0.1464  0.6096  1.5094
  162POPC   C34 4655   0.941   3.027   5.797  0.0728 -0.0022  0.1265
  162POPC   H4X 4656   0.928   3.002   5.689 -0.3114  0.2162  0.1201
  162POPC   H4Y 4657   1.004   3.118   5.801  2.9670 -1.5072 -3.8579
  162POPC   C35 4658   0.793   3.062   5.830 -0.6786 -0.7377  0.5352
  162POPC   H5X 4659   0.799   3.167   5.868  3.1188 -0.9916  1.0553
  162POPC   H5Y 4660   0.747   2.987   5.898 -5.8387 -1.1425 -2.8522
  162POPC   C36 4661   0.706   3.077   5.703  0.5352 -0.1190 -0.5458
  162POPC   H6X 4662   0.600   3.069   5.735  0.8576  1.6266  1.0917
  162POPC   H6Y 4663   0.716   2.983   5.644 -1.4507 -0.1480 -0.8892
  162POPC   C37 4664   0.734   3.202   5.612  0.4139  0.1670 -0.0478
  162POPC   H7X 4665   0.842   3.224   5.601  1.2969 -2.0841  2.8776
  162POPC   H7Y 4666   0.676   3.287   5.653 -0.1160  0.4233 -1.2758
  162POPC   C38 4667   0.693   3.171   5.472 -0.6218 -0.2480  0.3732
  162POPC   H8X 4668   0.591   3.129   5.461 -0.2690 -0.7077 -1.6175
  162POPC   H8Y 4669   0.765   3.099   5.425 -0.5356  0.2806 -0.3142
  162POPC   C39 4670   0.705   3.296   5.378 -0.1153  0.6462 -0.5375
  162POPC   H9X 4671   0.811   3.329   5.385  0.0743 -0.2738  3.2105
  162POPC   H9Y 4672   0.648   3.374   5.432 -1.2845 -1.0560  0.8073
  162POPC  C310 4673   0.652   3.271   5.236 -0.1317 -0.3380  0.0951
  162POPC  H10X 4674   0.744   3.235   5.186 -0.5397  1.0596 -1.7849
  162POPC  H10Y 4675   0.614   3.362   5.183  1.0798  0.5326  0.6860
  162POPC  C311 4676   0.541   3.163   5.221  0.0184 -0.5587  0.4210
  162POPC  H11X 4677   0.451   3.170   5.284 -0.7355 -1.8717 -0.4659
  162POPC  H11Y 4678   0.602   3.074   5.247  0.9159 -0.6499 -1.7386
  162POPC  C312 4679   0.508   3.139   5.070  0.0216 -0.6309  0.5121
  162POPC  H12X 4680   0.602   3.155   5.012 -0.8384 -0.6620 -0.9247
  162POPC  H12Y 4681   0.441   3.222   5.041 -3.1943 -3.3826 -0.4438
  162POPC  C313 4682   0.447   3.008   5.052  0.4003 -0.5130 -0.0625
  162POPC  H13X 4683   0.362   2.991   5.121  0.5871  0.9003  0.5531
  162POPC  H13Y 4684   0.522   2.928   5.066  2.0004  1.1851  1.6260
  162POPC  C314 4685   0.391   2.986   4.908  0.0201 -0.4765 -0.2204
  162POPC  H14X 4686   0.461   3.036   4.838 -1.2584  1.3094 -0.2845
  162POPC  H14Y 4687   0.294   3.040   4.899 -0.0145 -0.3599  0.7413
  162POPC  C315 4688   0.392   2.845   4.867 -0.2047  1.2650 -0.2473
  162POPC  H15X 4689   0.347   2.777   4.943  0.0771  0.5478 -0.7107
  162POPC  H15Y 4690   0.497   2.809   4.860 -0.4222  0.4929  0.2650
  162POPC  C316 4691   0.332   2.821   4.733  0.2322  0.5367  0.5556
  162POPC  H16X 4692   0.355   2.718   4.699 -0.1307  0.9479 -0.9893
  162POPC  H16Y 4693   0.365   2.890   4.653 -0.3072 -1.6838 -1.6847
  162POPC  H16Z 4694   0.221   2.825   4.730  0.0758 -2.1019 -1.7694
  163POPC     N 4695   2.538   5.299   7.301 -0.2328 -0.6493 -0.4615
  163POPC   C12 4696   2.629   5.192   7.250 -0.2315 -0.6608 -0.4778
  163POPC  H12A 4697   2.642   5.205   7.144  1.5254  0.8517 -0.1392
  163POPC  H12B 4698   2.588   5.093   7.251  0.6723 -1.0679 -1.8345
  163POPC   C13 4699   2.532   5.309   7.452 -0.0487 -0.0086 -0.5198
  163POPC  H13A 4700   2.541   5.412   7.483  0.3060 -0.5921  1.4622
  163POPC  H13B 4701   2.431   5.285   7.481 -1.2627 -0.3068 -4.4057
  163POPC  H13C 4702   2.609   5.250   7.500  0.5666  1.0549 -0.1739
  163POPC   C14 4703   2.577   5.430   7.247 -0.3310 -0.3599 -0.3322
  163POPC  H14A 4704   2.681   5.454   7.259 -1.1491  2.5593  2.3494
  163POPC  H14B 4705   2.561   5.435   7.140  1.8290  0.2755 -0.6821
  163POPC  H14C 4706   2.519   5.509   7.293  0.5206  0.1908 -0.1728
  163POPC   C15 4707   2.400   5.278   7.244  0.2084 -0.1785 -0.0552
  163POPC  H15A 4708   2.386   5.285   7.137 -4.8083  1.4774  0.4281
  163POPC  H15B 4709   2.347   5.365   7.279  0.3794  0.2985 -0.9707
  163POPC  H15C 4710   2.364   5.182   7.280  3.4653 -1.6225 -0.2938
  163POPC   C11 4711   2.773   5.193   7.291  0.0121 -0.1021  0.8576
  163POPC  H11A 4712   2.829   5.097   7.279  0.0876  0.3408 -3.8371
  163POPC  H11B 4713   2.775   5.203   7.402  2.9945 -0.1822  0.8931
  163POPC     P 4714   2.933   5.273   7.104  0.1866  0.0493 -0.1628
  163POPC   O13 4715   3.065   5.222   7.145 -0.1682  0.5159  0.0759
  163POPC   O14 4716   2.931   5.402   7.025 -0.0831  0.2496 -0.0752
  163POPC   O12 4717   2.843   5.306   7.228  0.4867  0.0975 -0.7471
  163POPC   O11 4718   2.851   5.165   7.016 -0.9026 -0.5703 -0.1274
  163POPC    C1 4719   2.938   5.064   6.956  0.2152  0.0034 -0.5198
  163POPC    HA 4720   2.863   4.986   6.929 -0.6466  0.4399  0.5305
  163POPC    HB 4721   3.007   5.007   7.021  1.7381 -0.9003 -2.8165
  163POPC    C2 4722   3.027   5.120   6.833  0.1318  0.5361 -0.5258
  163POPC    HS 4723   3.111   5.172   6.885 -1.1674  1.0122  1.2158
  163POPC   O21 4724   2.944   5.203   6.749  0.2129  0.3808  0.1642
  163POPC   C21 4725   3.005   5.305   6.692  0.3632  0.7290  0.7405
  163POPC   O22 4726   3.123   5.339   6.710  0.6078  0.2133  0.2516
  163POPC   C22 4727   2.906   5.363   6.589  0.3783  0.0577  0.0909
  163POPC   H2R 4728   2.829   5.417   6.648 -0.7730 -1.9909  0.5359
  163POPC   H2S 4729   2.848   5.281   6.541 -1.6306  1.3409  0.1801
  163POPC    C3 4730   3.079   5.002   6.753 -0.1826 -0.5404 -0.3815
  163POPC    HX 4731   2.989   4.954   6.709 -1.0096  2.7085 -2.5448
  163POPC    HY 4732   3.143   4.934   6.814 -0.0165 -1.6416 -1.7444
  163POPC   O31 4733   3.156   5.043   6.635  0.0553  0.1552  0.1781
  163POPC   C31 4734   3.282   5.075   6.656 -0.0184 -0.0719  0.1276
  163POPC   O32 4735   3.340   5.083   6.768  0.7021 -0.0941  0.4986
  163POPC   C32 4736   3.350   5.096   6.521 -0.4185 -0.2315 -0.6964
  163POPC   H2X 4737   3.459   5.097   6.540 -0.2833 -3.3197 -0.9180
  163POPC   H2Y 4738   3.329   5.200   6.487 -1.2518  0.1029  0.7740
  163POPC   C23 4739   2.984   5.434   6.476  0.5255 -0.7626 -0.3630
  163POPC   H3R 4740   3.069   5.495   6.512  0.4792 -0.1455 -1.2593
  163POPC   H3S 4741   2.914   5.503   6.425  0.7425 -0.9573 -0.9368
  163POPC   C24 4742   3.034   5.339   6.362 -0.1475 -0.1583 -0.2913
  163POPC   H4R 4743   2.943   5.301   6.311 -1.8006 -0.2228  2.4972
  163POPC   H4S 4744   3.079   5.257   6.421  0.3068  1.3500  1.5855
  163POPC   C25 4745   3.140   5.405   6.271 -0.3481 -0.9293  0.2815
  163POPC   H5R 4746   3.234   5.436   6.320 -1.5092  1.8638  0.9494
  163POPC   H5S 4747   3.092   5.499   6.236 -3.8685 -2.2689  1.0166
  163POPC   C26 4748   3.187   5.300   6.159  0.3347 -0.0945  0.5802
  163POPC   H6R 4749   3.251   5.222   6.206  1.0785  1.0115  1.4394
  163POPC   H6S 4750   3.248   5.363   6.091  0.4331 -0.6781  0.1194
  163POPC   C27 4751   3.068   5.224   6.094 -0.8426 -0.4070 -0.2212
  163POPC   H7R 4752   2.984   5.297   6.095 -0.2169  0.3263  0.7789
  163POPC   H7S 4753   3.038   5.136   6.156  1.1084 -1.1149 -0.2229
  163POPC   C28 4754   3.103   5.183   5.949 -0.3843  0.0326  0.4576
  163POPC   H8R 4755   3.192   5.117   5.957 -0.5875 -0.2760  0.1886
  163POPC   H8S 4756   3.124   5.279   5.897 -2.0510  1.0716  1.6108
  163POPC   C29 4757   3.005   5.096   5.866  0.6103  0.0688  0.0038
  163POPC   H91 4758   2.971   5.001   5.911 -0.6862 -0.3333 -1.7148
  163POPC  C210 4759   2.965   5.118   5.741 -0.0016 -0.1438 -0.0192
  163POPC  H101 4760   2.912   5.035   5.694 -0.7844  0.1380  0.3482
  163POPC  C211 4761   3.013   5.234   5.650  0.0131 -0.2772 -0.3385
  163POPC  H11R 4762   3.100   5.199   5.591 -1.1895 -1.4649 -1.4649
  163POPC  H11S 4763   3.042   5.327   5.703 -0.3117  0.8547 -2.0372
  163POPC  C212 4764   2.914   5.268   5.541 -0.0553  0.4427  0.6140
  163POPC  H12R 4765   2.937   5.375   5.521  1.2354  0.3671  1.6044
  163POPC  H12S 4766   2.808   5.276   5.573 -0.1966 -1.0117  0.5734
  163POPC  C213 4767   2.930   5.185   5.410 -0.1916 -0.0432  0.0156
  163POPC  H13R 4768   2.856   5.196   5.328  1.2565  0.0011 -1.3338
  163POPC  H13S 4769   2.919   5.077   5.435 -2.3266  0.1106 -0.0824
  163POPC  C214 4770   3.056   5.224   5.331 -0.4612 -0.0686  0.1223
  163POPC  H14R 4771   3.143   5.222   5.401 -0.4313 -0.5420  0.0738
  163POPC  H14S 4772   3.061   5.328   5.291  0.5874 -1.0189 -2.4998
  163POPC  C215 4773   3.089   5.130   5.217  0.7549  0.5591 -0.3545
  163POPC  H15R 4774   3.017   5.147   5.134 -0.0992  0.1997  0.2899
  163POPC  H15S 4775   3.076   5.024   5.248 -0.0731  0.4862 -0.9245
  163POPC  C216 4776   3.230   5.142   5.160  0.5796 -0.0830  0.0846
  163POPC  H16R 4777   3.300   5.130   5.246  2.7389 -0.7641 -1.6464
  163POPC  H16S 4778   3.247   5.248   5.134  1.9695 -0.2283  0.2824
  163POPC  C217 4779   3.263   5.048   5.045 -0.3631 -0.2047  0.3550
  163POPC  H17R 4780   3.278   5.114   4.957  1.2777  2.6195  2.5918
  163POPC  H17S 4781   3.174   4.987   5.019 -0.2215  0.4187 -1.8478
  163POPC  C218 4782   3.381   4.955   5.060  0.0610  0.3753  0.2418
  163POPC  H18R 4783   3.473   5.012   5.083  1.4132 -0.4371 -2.6668
  163POPC  H18S 4784   3.408   4.893   4.973 -2.0599  0.9880 -0.9243
  163POPC  H18T 4785   3.355   4.886   5.143  0.8525 -0.3107 -0.0659
  163POPC   C33 4786   3.319   4.986   6.418  0.1810  0.6583  0.6248
  163POPC   H3X 4787   3.214   4.997   6.383 -0.0618 -0.7189  0.8614
  163POPC   H3Y 4788   3.318   4.877   6.442 -0.5398  0.4917 -0.1136
  163POPC   C34 4789   3.411   4.999   6.295 -0.1237  0.3981 -1.0286
  163POPC   H4X 4790   3.515   4.972   6.323  1.3277  4.4071 -1.8254
  163POPC   H4Y 4791   3.429   5.106   6.269  2.1632  0.3554  0.1683
  163POPC   C35 4792   3.359   4.929   6.183  0.9754 -0.0378 -1.2072
  163POPC   H5X 4793   3.277   4.979   6.128 -0.7682  1.0062  2.0434
  163POPC   H5Y 4794   3.307   4.834   6.211 -0.1478  0.4260 -1.6759
  163POPC   C36 4795   3.458   4.922   6.070  0.3371  0.3205 -0.5871
  163POPC   H6X 4796   3.552   4.872   6.103 -0.3059 -2.5128 -2.6650
  163POPC   H6Y 4797   3.470   5.029   6.043 -0.5966  0.1229 -1.9010
  163POPC   C37 4798   3.392   4.860   5.949 -0.2933  0.2943 -0.1243
  163POPC   H7X 4799   3.285   4.887   5.940 -0.5761  0.6269  3.0477
  163POPC   H7Y 4800   3.388   4.750   5.965 -0.5376  0.1752 -0.9581
  163POPC   C38 4801   3.461   4.878   5.809 -0.5563  0.7072 -0.0340
  163POPC   H8X 4802   3.562   4.831   5.798 -0.8458 -0.1248  0.6973
  163POPC   H8Y 4803   3.472   4.987   5.793 -0.5749  1.0536  2.0166
  163POPC   C39 4804   3.376   4.814   5.701 -0.7997 -0.3794  0.3168
  163POPC   H9X 4805   3.333   4.721   5.745 -0.9685  0.3439  1.7592
  163POPC   H9Y 4806   3.435   4.790   5.610 -0.6940  1.9093 -0.2574
  163POPC  C310 4807   3.258   4.904   5.665 -0.3631  0.6311 -0.4535
  163POPC  H10X 4808   3.297   5.007   5.677 -1.5504  0.8950  1.5284
  163POPC  H10Y 4809   3.183   4.896   5.747 -0.7733  0.1419 -0.8675
  163POPC  C311 4810   3.203   4.864   5.525  0.9349 -0.8196  0.1722
  163POPC  H11X 4811   3.290   4.884   5.459  0.6413  3.8283  0.9199
  163POPC  H11Y 4812   3.121   4.935   5.503  1.7034  1.1383  3.1132
  163POPC  C312 4813   3.130   4.726   5.520  0.2718 -0.8164  0.1386
  163POPC  H12X 4814   3.050   4.704   5.594 -0.3818 -2.6175 -1.0511
  163POPC  H12Y 4815   3.209   4.651   5.541 -0.1144 -1.2798 -0.0532
  163POPC  C313 4816   3.060   4.684   5.389  0.3264  0.0369 -0.3685
  163POPC  H13X 4817   2.986   4.764   5.366 -0.5654  1.0501  4.6572
  163POPC  H13Y 4818   2.999   4.593   5.410  0.6069  0.0750  0.6693
  163POPC  C314 4819   3.157   4.662   5.272 -0.3769 -0.5797 -0.5212
  163POPC  H14X 4820   3.244   4.600   5.303 -1.3681 -1.3034  0.9754
  163POPC  H14Y 4821   3.195   4.762   5.242 -1.2692  0.6707  2.2136
  163POPC  C315 4822   3.091   4.596   5.149 -0.3309  0.7232  0.2534
  163POPC  H15X 4823   3.031   4.508   5.181 -1.4606  0.9568 -1.0837
  163POPC  H15Y 4824   3.176   4.562   5.086  1.4151  1.3846  2.1624
  163POPC  C316 4825   3.001   4.690   5.069  0.0770  0.1604 -0.1615
  163POPC  H16X 4826   2.927   4.739   5.135 -0.8635  0.2055 -1.2244
  163POPC  H16Y 4827   2.945   4.638   4.988 -0.7304 -0.0611  0.5167
  163POPC  H16Z 4828   3.061   4.762   5.009  0.9222 -0.0112  0.4666
  164POPC     N 4829   1.953   5.861   6.576  0.0296  0.1551 -0.2187
  164POPC   C12 4830   1.964   5.754   6.678  0.8321  1.0878  0.6290
  164POPC  H12A 4831   1.871   5.700   6.688  2.4273 -1.6001  1.8485
  164POPC  H12B 4832   1.980   5.813   6.768  1.5677  1.1680  0.4484
  164POPC   C13 4833   1.807   5.897   6.569  0.3287  0.2626  0.8534
  164POPC  H13A 4834   1.785   5.982   6.506  0.7664  0.2760  0.7143
  164POPC  H13B 4835   1.757   5.811   6.528 -0.4337  0.3632  1.5296
  164POPC  H13C 4836   1.770   5.923   6.667  0.9238  2.9544  0.4311
  164POPC   C14 4837   2.023   5.989   6.625 -0.2252  0.3488 -0.0318
  164POPC  H14A 4838   1.970   6.018   6.714 -0.9593 -1.0354  0.0121
  164POPC  H14B 4839   2.128   5.972   6.643 -0.0575 -0.9243 -1.8642
  164POPC  H14C 4840   2.010   6.074   6.559  0.7677  0.7209  0.2451
  164POPC   C15 4841   1.997   5.829   6.442  0.0764  0.0199 -1.1809
  164POPC  H15A 4842   1.939   5.745   6.406  0.8246 -1.8413  1.5831
  164POPC  H15B 4843   2.098   5.789   6.444  0.1281  0.1335  0.4470
  164POPC  H15C 4844   1.992   5.913   6.375 -2.7325  2.2635  1.5552
  164POPC   C11 4845   2.078   5.657   6.657  0.2079  0.2257  0.3452
  164POPC  H11A 4846   2.053   5.605   6.562  1.3365 -0.1434  0.2261
  164POPC  H11B 4847   2.072   5.576   6.732 -1.1942 -0.3477 -0.3564
  164POPC     P 4848   2.314   5.726   6.756  0.5001  0.0993 -0.0718
  164POPC   O13 4849   2.353   5.591   6.811 -0.3534 -0.3606  0.0521
  164POPC   O14 4850   2.271   5.823   6.856  0.2012  0.3507 -0.0565
  164POPC   O12 4851   2.207   5.712   6.638 -0.3450 -0.3629 -0.5656
  164POPC   O11 4852   2.439   5.787   6.673 -0.1923  0.4862 -0.7578
  164POPC    C1 4853   2.422   5.876   6.567  0.1755  0.1277 -0.2448
  164POPC    HA 4854   2.517   5.932   6.552 -0.6036  1.4451 -0.3949
  164POPC    HB 4855   2.336   5.944   6.582 -0.6209 -0.6174 -1.2614
  164POPC    C2 4856   2.394   5.810   6.437 -0.2040  0.0800  0.2847
  164POPC    HS 4857   2.285   5.788   6.423 -0.2717  0.8690 -0.4922
  164POPC   O21 4858   2.477   5.694   6.427  0.6145  0.2796 -0.0756
  164POPC   C21 4859   2.417   5.581   6.379  0.0847 -0.6476 -0.0735
  164POPC   O22 4860   2.314   5.588   6.316 -0.1848  0.2464 -0.5702
  164POPC   C22 4861   2.492   5.461   6.413 -0.4296  0.7434  0.0288
  164POPC   H2R 4862   2.495   5.444   6.523 -1.3218  2.1371  0.2931
  164POPC   H2S 4863   2.596   5.468   6.374 -0.9639 -1.2880 -1.9202
  164POPC    C3 4864   2.421   5.914   6.322  0.5515  0.1042 -0.8532
  164POPC    HX 4865   2.526   5.949   6.334  0.6739 -0.6917  0.7449
  164POPC    HY 4866   2.339   5.988   6.336  0.0015  0.1643 -3.8056
  164POPC   O31 4867   2.413   5.854   6.190  0.1417 -0.0033 -0.1814
  164POPC   C31 4868   2.281   5.832   6.149 -0.0822  0.2309  0.4158
  164POPC   O32 4869   2.191   5.898   6.193 -0.3672  0.1907 -0.5906
  164POPC   C32 4870   2.270   5.734   6.026 -0.6328 -0.0249 -0.8201
  164POPC   H2X 4871   2.353   5.662   6.036  0.0209  1.0195  4.4319
  164POPC   H2Y 4872   2.283   5.794   5.933  2.9711 -2.0051 -1.7580
  164POPC   C23 4873   2.425   5.338   6.348 -0.0985 -0.4086  0.0727
  164POPC   H3R 4874   2.315   5.349   6.341 -0.0289  0.2765 -0.0100
  164POPC   H3S 4875   2.433   5.239   6.399  0.0932 -1.6776 -2.2710
  164POPC   C24 4876   2.483   5.324   6.210  0.4274  0.2631  0.4890
  164POPC   H4R 4877   2.590   5.295   6.212  0.5052  0.5752  0.9481
  164POPC   H4S 4878   2.486   5.421   6.156  2.0187 -0.3525 -0.6042
  164POPC   C25 4879   2.412   5.211   6.125  0.8748  0.2831  0.8558
  164POPC   H5R 4880   2.464   5.214   6.027 -0.0686  1.8657  0.3778
  164POPC   H5S 4881   2.303   5.230   6.115  0.9422 -0.2805 -1.5253
  164POPC   C26 4882   2.425   5.074   6.191 -0.2869  0.7509 -0.0304
  164POPC   H6R 4883   2.367   5.083   6.285 -1.7247  3.5804 -1.0592
  164POPC   H6S 4884   2.532   5.045   6.199 -0.9996 -2.9811 -1.5699
  164POPC   C27 4885   2.370   4.962   6.093 -0.1055  0.4903  0.1092
  164POPC   H7R 4886   2.448   4.962   6.013  0.1564 -1.5335  0.3014
  164POPC   H7S 4887   2.268   4.992   6.061 -0.9659 -2.3724 -0.0906
  164POPC   C28 4888   2.372   4.820   6.147  0.5514  0.3942 -0.8401
  164POPC   H8R 4889   2.315   4.829   6.242 -1.0107  0.5277 -1.7703
  164POPC   H8S 4890   2.474   4.792   6.184 -0.2113 -0.1416  0.9766
  164POPC   C29 4891   2.316   4.712   6.052  0.5304  0.0869 -0.3190
  164POPC   H91 4892   2.206   4.708   6.048  0.5945 -2.4189 -1.0163
  164POPC  C210 4893   2.384   4.629   5.972 -0.4496  0.6894  0.1545
  164POPC  H101 4894   2.337   4.556   5.905  3.0854 -4.0544  2.2013
  164POPC  C211 4895   2.535   4.612   5.975  0.1257  0.0155  0.6222
  164POPC  H11R 4896   2.566   4.519   6.027 -0.4194 -1.0537 -0.8889
  164POPC  H11S 4897   2.590   4.695   6.024 -0.0934 -0.0193  0.9249
  164POPC  C212 4898   2.600   4.610   5.836 -0.0032 -0.4380  0.1596
  164POPC  H12R 4899   2.534   4.540   5.780  0.0987 -2.0040  1.8826
  164POPC  H12S 4900   2.704   4.570   5.847 -0.3584 -1.4616 -0.1060
  164POPC  C213 4901   2.615   4.741   5.751 -0.4343  0.0954 -0.5929
  164POPC  H13R 4902   2.696   4.797   5.802  0.0285 -0.4281 -0.7442
  164POPC  H13S 4903   2.517   4.793   5.742 -1.7069 -1.9250  0.6954
  164POPC  C214 4904   2.666   4.703   5.602  0.0697 -0.0360 -1.4099
  164POPC  H14R 4905   2.765   4.652   5.609  0.4442  0.8848  0.9968
  164POPC  H14S 4906   2.690   4.794   5.544 -0.8275  2.0363  1.2833
  164POPC  C215 4907   2.557   4.648   5.512 -0.3178 -0.0306 -0.0419
  164POPC  H15R 4908   2.487   4.729   5.481  1.5183  1.4910 -0.4137
  164POPC  H15S 4909   2.504   4.574   5.575  0.2310 -0.8860 -0.5609
  164POPC  C216 4910   2.610   4.580   5.382 -0.0417 -0.7332  0.3154
  164POPC  H16R 4911   2.691   4.641   5.336  0.4654 -0.4606  1.5401
  164POPC  H16S 4912   2.519   4.565   5.319 -0.5426 -1.4607  1.2016
  164POPC  C217 4913   2.672   4.447   5.418 -0.2476  0.5165  0.3917
  164POPC  H17R 4914   2.589   4.382   5.452 -0.4971  0.5644 -0.1183
  164POPC  H17S 4915   2.740   4.454   5.505 -1.1292 -1.1371  1.2667
  164POPC  C218 4916   2.738   4.383   5.292  0.3512 -0.4459 -0.0627
  164POPC  H18R 4917   2.841   4.420   5.279  0.3732 -1.3087 -3.2145
  164POPC  H18S 4918   2.686   4.416   5.199  1.0324 -1.0543 -0.6642
  164POPC  H18T 4919   2.742   4.273   5.306  0.8473 -0.4645 -0.3310
  164POPC   C33 4920   2.136   5.655   6.024 -0.4059 -0.0208 -0.1609
  164POPC   H3X 4921   2.052   5.727   6.037  0.0910  0.1452  2.7570
  164POPC   H3Y 4922   2.131   5.593   6.116  1.6082  0.4543  0.3114
  164POPC   C34 4923   2.109   5.569   5.898  0.2758 -0.1162 -0.2459
  164POPC   H4X 4924   2.018   5.509   5.922 -0.1744  0.6046 -0.1339
  164POPC   H4Y 4925   2.203   5.511   5.885  1.0196  0.4011  2.1869
  164POPC   C35 4926   2.068   5.655   5.776 -0.1562  0.2999 -0.2365
  164POPC   H5X 4927   2.157   5.716   5.748  1.6015 -1.4384  1.3184
  164POPC   H5Y 4928   1.992   5.724   5.819  0.6607  1.0499  0.0504
  164POPC   C36 4929   2.032   5.565   5.659  0.2484  0.7391 -0.5133
  164POPC   H6X 4930   2.117   5.496   5.639 -0.7361  0.1532 -3.0515
  164POPC   H6Y 4931   2.033   5.624   5.565 -1.7487  0.6642 -0.6262
  164POPC   C37 4932   1.894   5.491   5.678 -0.4449 -0.3254 -0.2032
  164POPC   H7X 4933   1.813   5.563   5.700 -1.4731 -1.0552 -1.4550
  164POPC   H7Y 4934   1.906   5.409   5.752  0.2937  0.9149  1.1012
  164POPC   C38 4935   1.858   5.415   5.546 -0.6553  0.4531  0.2329
  164POPC   H8X 4936   1.866   5.480   5.457 -1.0602  0.2029  0.0107
  164POPC   H8Y 4937   1.752   5.382   5.554 -0.5579  0.0205 -0.1938
  164POPC   C39 4938   1.935   5.285   5.525 -0.7921  0.5169  0.3266
  164POPC   H9X 4939   1.879   5.195   5.558 -3.3455  1.9080  0.0653
  164POPC   H9Y 4940   2.033   5.282   5.577 -0.4763  0.1465 -0.2670
  164POPC  C310 4941   1.983   5.269   5.378  0.6350  0.3281 -0.2864
  164POPC  H10X 4942   1.894   5.275   5.312  0.3270 -0.1660  0.0715
  164POPC  H10Y 4943   2.025   5.167   5.362  0.6345  0.5130 -1.5165
  164POPC  C311 4944   2.077   5.367   5.326  0.0792  0.8610  0.3678
  164POPC  H11X 4945   2.180   5.366   5.367 -0.3745  0.0563  1.5555
  164POPC  H11Y 4946   2.035   5.468   5.344 -4.6687 -0.4744 -1.5612
  164POPC  C312 4947   2.079   5.355   5.169 -0.4122 -0.4560 -0.6439
  164POPC  H12X 4948   1.975   5.353   5.130 -0.6380 -0.5886 -0.0486
  164POPC  H12Y 4949   2.128   5.258   5.145 -0.9826 -0.5691 -1.3632
  164POPC  C313 4950   2.160   5.475   5.110  0.0763  0.2945  0.2218
  164POPC  H13X 4951   2.266   5.457   5.136  0.0999  0.8035  0.4863
  164POPC  H13Y 4952   2.116   5.570   5.146 -2.1510 -0.6839  0.2619
  164POPC  C314 4953   2.141   5.465   4.952  0.3591 -0.4338 -0.0697
  164POPC  H14X 4954   2.069   5.539   4.911  2.2658  2.1023  0.8945
  164POPC  H14Y 4955   2.105   5.361   4.934  1.2651 -0.5877 -1.1473
  164POPC  C315 4956   2.281   5.472   4.886  0.4533 -0.3779  0.7610
  164POPC  H15X 4957   2.282   5.426   4.784 -0.0065  0.9542  0.1233
  164POPC  H15Y 4958   2.353   5.423   4.954 -0.3482 -2.3952  0.2312
  164POPC  C316 4959   2.332   5.615   4.863 -1.0953 -0.6621 -0.3198
  164POPC  H16X 4960   2.270   5.662   4.784 -2.1638 -0.1372  0.7951
  164POPC  H16Y 4961   2.439   5.623   4.836 -0.6685  1.9474  1.6973
  164POPC  H16Z 4962   2.319   5.679   4.954 -2.3565  0.1938 -1.0700
  165POPC     N 4963   2.092   0.058   6.713 -0.1323 -0.3278  0.0023
  165POPC   C12 4964   2.123   0.094   6.565 -0.3147  0.2294  0.8550
  165POPC  H12A 4965   2.069   0.020   6.508  1.0824  0.9826 -1.5932
  165POPC  H12B 4966   2.228   0.081   6.541 -0.0849 -1.6761  2.6504
  165POPC   C13 4967   2.152   0.155   6.804 -0.6073  0.6920  0.2045
  165POPC  H13A 4968   2.093   0.245   6.811 -2.6234 -0.5920  0.8266
  165POPC  H13B 4969   2.165   0.122   6.906  0.9910  1.6034  0.3165
  165POPC  H13C 4970   2.254   0.185   6.790 -0.1110 -1.2233 -0.5537
  165POPC   C14 4971   1.939   0.078   6.745 -0.8378 -0.8364 -0.5532
  165POPC  H14A 4972   1.922   0.068   6.851 -0.2989  1.8612 -0.1417
  165POPC  H14B 4973   1.896   0.167   6.702  0.2606  0.7527  1.4692
  165POPC  H14C 4974   1.886  -0.009   6.708 -1.3366 -0.1853 -1.4014
  165POPC   C15 4975   2.130   6.362   6.739 -0.0977  0.5230  0.5379
  165POPC  H15A 4976   2.101   6.334   6.839  0.6923  0.0434  0.6414
  165POPC  H15B 4977   2.238   6.355   6.734 -0.0841  1.4622 -1.7869
  165POPC  H15C 4978   2.094   6.286   6.671 -1.8309  1.3382  0.5054
  165POPC   C11 4979   2.090   0.230   6.511  0.6827 -0.1812 -0.2459
  165POPC  H11A 4980   2.142   0.244   6.414 -0.5204 -0.7075 -1.0002
  165POPC  H11B 4981   2.133   0.304   6.581  2.7871 -0.2705 -1.3730
  165POPC     P 4982   1.865   0.161   6.391 -0.4616 -0.0313 -0.1398
  165POPC   O13 4983   1.767   0.252   6.340  0.0029 -0.0572 -0.0008
  165POPC   O14 4984   1.814   0.039   6.448 -0.4402  0.6421  0.5193
  165POPC   O12 4985   1.951   0.248   6.495  0.2555  0.2197  0.0826
  165POPC   O11 4986   1.966   0.132   6.267 -0.1025 -0.2726  0.0055
  165POPC    C1 4987   1.973   6.448   6.213 -0.2401  0.5708 -0.3453
  165POPC    HA 4988   1.919   6.367   6.267 -0.4769  1.6068  1.0094
  165POPC    HB 4989   2.076   6.408   6.216 -0.5337 -0.1643  2.0341
  165POPC    C2 4990   1.904   6.448   6.066 -0.3987 -0.1689 -0.4839
  165POPC    HS 4991   1.856   6.350   6.045 -0.0664 -0.9468  2.0514
  165POPC   O21 4992   2.020   0.017   5.969 -0.6457  0.1569  0.0782
  165POPC   C21 4993   2.082   6.345   5.937  0.0640 -0.3143 -0.1201
  165POPC   O22 4994   2.043   6.234   5.957  0.1244 -0.3559  0.3017
  165POPC   C22 4995   2.202   6.377   5.858 -0.5288  0.1061 -0.6662
  165POPC   H2R 4996   2.278   6.410   5.932 -0.0720 -1.7090 -0.2800
  165POPC   H2S 4997   2.183   6.461   5.789  1.6848 -0.3689 -1.9405
  165POPC    C3 4998   1.801   0.119   6.055 -0.0425 -0.7007  0.0215
  165POPC    HX 4999   1.851   0.214   6.086  0.5412 -1.0406  0.1326
  165POPC    HY 5000   1.715   0.092   6.120  1.2090 -1.0385  1.6059
  165POPC   O31 5001   1.756   0.147   5.916 -0.3203 -0.6914  0.0633
  165POPC   C31 5002   1.655   0.229   5.908  0.1517  0.8092 -0.6175
  165POPC   O32 5003   1.589   0.268   6.003  0.0584 -0.1403  0.3735
  165POPC   C32 5004   1.618   0.245   5.762  0.2027 -0.3666 -0.0105
  165POPC   H2X 5005   1.587   0.147   5.722  1.1549  0.1582 -2.1738
  165POPC   H2Y 5006   1.705   0.281   5.703  1.2408 -1.5928  0.7225
  165POPC   C23 5007   2.266   6.267   5.769  0.1680 -0.0211  0.1013
  165POPC   H3R 5008   2.277   6.173   5.827  0.8075  0.5314  0.9027
  165POPC   H3S 5009   2.370   6.294   5.741 -0.1148 -0.6842 -1.7307
  165POPC   C24 5010   2.188   6.241   5.643  0.1321  0.3649  1.3051
  165POPC   H4R 5011   2.252   6.238   5.551 -1.4229 -1.2742  0.2151
  165POPC   H4S 5012   2.112   6.312   5.604 -1.2469 -2.1343 -0.9312
  165POPC   C25 5013   2.116   6.110   5.652 -0.1020 -0.0081  0.2580
  165POPC   H5R 5014   2.056   6.086   5.743 -0.6843  0.3096 -0.0396
  165POPC   H5S 5015   2.194   6.033   5.670 -0.0262 -0.4187 -1.6588
  165POPC   C26 5016   2.041   6.091   5.527 -0.0950  0.0832  0.4128
  165POPC   H6R 5017   2.101   6.133   5.443 -0.8102 -0.2226 -0.2609
  165POPC   H6S 5018   1.946   6.147   5.533 -0.6343 -0.8573  0.8782
  165POPC   C27 5019   2.019   5.940   5.499  0.6684  0.6764  0.2096
  165POPC   H7R 5020   1.949   5.906   5.579  0.1292  1.0214 -0.1079
  165POPC   H7S 5021   2.112   5.884   5.524  0.3497 -0.1044 -0.3396
  165POPC   C28 5022   1.967   5.912   5.355 -0.0005 -0.3359  0.3697
  165POPC   H8R 5023   1.969   5.802   5.340  0.1084 -0.2253 -0.4367
  165POPC   H8S 5024   2.036   5.959   5.282 -0.5662  1.4805  0.9334
  165POPC   C29 5025   1.823   5.966   5.342  0.3621 -0.1794 -0.4297
  165POPC   H91 5026   1.818   6.051   5.272 -0.0648  0.3593  0.2447
  165POPC  C210 5027   1.704   5.910   5.373  0.4794 -0.3104  0.1926
  165POPC  H101 5028   1.610   5.968   5.367  0.3718 -0.3850  1.0601
  165POPC  C211 5029   1.694   5.789   5.458 -0.3845  0.4740 -0.5817
  165POPC  H11R 5030   1.630   5.807   5.547 -0.2637  1.9452 -0.7671
  165POPC  H11S 5031   1.794   5.758   5.493 -0.1741  1.5340 -0.2095
  165POPC  C212 5032   1.641   5.660   5.383 -0.1191 -0.0224 -0.0142
  165POPC  H12R 5033   1.537   5.680   5.350  0.0182  0.9218  0.0988
  165POPC  H12S 5034   1.634   5.574   5.453 -0.6681  0.4128  0.4741
  165POPC  C213 5035   1.728   5.636   5.262 -0.2441  0.4003  0.0516
  165POPC  H13R 5036   1.838   5.642   5.278  0.2675 -1.5801 -2.1290
  165POPC  H13S 5037   1.714   5.727   5.200 -1.2367 -0.7827 -1.5419
  165POPC  C214 5038   1.676   5.510   5.188 -0.3130 -0.1055  0.0877
  165POPC  H14R 5039   1.566   5.525   5.183 -0.5033 -1.8289 -2.7093
  165POPC  H14S 5040   1.705   5.418   5.243  0.6910 -0.4159 -0.9138
  165POPC  C215 5041   1.718   5.502   5.038 -0.4737  0.1963  0.1183
  165POPC  H15R 5042   1.828   5.497   5.032 -0.2568 -2.1670  3.3381
  165POPC  H15S 5043   1.685   5.599   4.993  0.8621  2.1088  2.9763
  165POPC  C216 5044   1.647   5.392   4.959 -0.7778  0.2214 -0.1607
  165POPC  H16R 5045   1.543   5.428   4.942 -1.4766 -0.0644  2.8354
  165POPC  H16S 5046   1.642   5.298   5.017  1.8139  0.1652  0.1112
  165POPC  C217 5047   1.717   5.362   4.821  0.2271  0.8474 -0.5056
  165POPC  H17R 5048   1.826   5.377   4.835  0.5399 -0.7130 -1.0167
  165POPC  H17S 5049   1.704   5.440   4.744 -1.3934  1.0713 -0.0424
  165POPC  C218 5050   1.669   5.229   4.764  0.6132  0.5081 -0.3571
  165POPC  H18R 5051   1.738   5.196   4.684 -1.0413  0.0194 -1.6457
  165POPC  H18S 5052   1.568   5.234   4.716 -0.1007  1.4199  1.1374
  165POPC  H18T 5053   1.662   5.155   4.847 -1.0994  1.6510  0.6038
  165POPC   C33 5054   1.494   0.345   5.741 -0.1428  0.4069  0.0577
  165POPC   H3X 5055   1.544   0.440   5.714  1.6889 -0.8134 -1.0472
  165POPC   H3Y 5056   1.440   0.359   5.837 -0.5907  0.9293 -0.2659
  165POPC   C34 5057   1.400   0.303   5.631 -0.2985  0.3219  1.1111
  165POPC   H4X 5058   1.369   0.196   5.631  1.2369 -0.1609  0.8021
  165POPC   H4Y 5059   1.461   0.311   5.538 -0.4785 -0.3644  0.9256
  165POPC   C35 5060   1.286   0.395   5.627 -0.2367 -0.2183 -0.7110
  165POPC   H5X 5061   1.231   0.402   5.723 -0.2816 -0.0785 -0.7471
  165POPC   H5Y 5062   1.214   0.351   5.555 -2.6961  2.2371  0.0642
  165POPC   C36 5063   1.314   0.538   5.594 -0.0553  0.3552 -0.1438
  165POPC   H6X 5064   1.374   0.590   5.672 -1.2148  1.1026  0.2747
  165POPC   H6Y 5065   1.213   0.583   5.588 -0.4609  0.1589  3.2101
  165POPC   C37 5066   1.410   0.559   5.467 -0.3462  0.4071  0.4946
  165POPC   H7X 5067   1.352   0.498   5.394  0.4764 -0.3815  0.4861
  165POPC   H7Y 5068   1.513   0.520   5.482  1.1277  3.5221 -0.5509
  165POPC   C38 5069   1.419   0.701   5.412 -0.0444 -0.5046  0.4232
  165POPC   H8X 5070   1.471   0.773   5.478  0.1834  1.4750 -1.7591
  165POPC   H8Y 5071   1.314   0.737   5.402 -0.3862 -0.7904  2.5565
  165POPC   C39 5072   1.491   0.713   5.274  0.2717  0.0382 -0.3536
  165POPC   H9X 5073   1.423   0.665   5.200 -0.5684 -0.2574  0.5839
  165POPC   H9Y 5074   1.573   0.639   5.272 -1.1262 -1.6319  0.9979
  165POPC  C310 5075   1.544   0.854   5.241 -0.2216 -0.3800 -0.6124
  165POPC  H10X 5076   1.628   0.882   5.309  0.5810 -1.3567 -1.1709
  165POPC  H10Y 5077   1.461   0.927   5.248  0.5980  0.4447  1.4092
  165POPC  C311 5078   1.597   0.860   5.092  0.1321  0.1625 -0.4860
  165POPC  H11X 5079   1.514   0.833   5.024  1.5033 -2.8110 -1.1335
  165POPC  H11Y 5080   1.683   0.790   5.086  0.5851  0.6560  0.0674
  165POPC  C312 5081   1.646   1.007   5.064  0.7887 -0.0893 -0.1505
  165POPC  H12X 5082   1.729   1.026   5.135  1.5972 -0.3025 -1.0108
  165POPC  H12Y 5083   1.559   1.069   5.094  0.1600 -1.1985  0.3731
  165POPC  C313 5084   1.678   1.039   4.913 -0.2104  0.3152 -0.0537
  165POPC  H13X 5085   1.704   1.147   4.906 -4.0367  1.3319 -0.9171
  165POPC  H13Y 5086   1.590   1.036   4.846  0.4279  1.7671 -1.0099
  165POPC  C314 5087   1.796   0.951   4.860  0.3186 -0.0244 -0.1668
  165POPC  H14X 5088   1.764   0.845   4.853 -1.6936  0.6253 -1.7628
  165POPC  H14Y 5089   1.877   0.962   4.935  1.0384 -0.7561 -0.8307
  165POPC  C315 5090   1.843   0.997   4.728  0.3974 -0.6235 -0.0952
  165POPC  H15X 5091   1.853   1.108   4.736  0.6996 -0.6296 -0.3766
  165POPC  H15Y 5092   1.752   0.984   4.666 -0.2326 -3.2918  1.2467
  165POPC  C316 5093   1.963   0.933   4.669 -0.2698 -0.7641 -0.3858
  165POPC  H16X 5094   2.013   0.980   4.581  2.0388  0.2370  1.3720
  165POPC  H16Y 5095   1.935   0.830   4.638 -1.7337 -1.0789  1.7747
  165POPC  H16Z 5096   2.038   0.937   4.751  0.9063  2.7728 -1.4185
  166POPC     N 5097   3.523   0.949   7.038 -0.3029  0.1383  0.4057
  166POPC   C12 5098   3.564   0.928   6.893 -0.4569  0.0878  0.4458
  166POPC  H12A 5099   3.579   0.823   6.874  2.1422  0.2162  1.3230
  166POPC  H12B 5100   3.662   0.974   6.891 -0.0796 -0.5992  1.7172
  166POPC   C13 5101   3.629   0.892   7.128  0.8178 -0.1179  0.0188
  166POPC  H13A 5102   3.595   0.885   7.230  0.0661 -2.6945 -0.3617
  166POPC  H13B 5103   3.646   0.788   7.106  0.0127 -0.7030  1.9864
  166POPC  H13C 5104   3.718   0.954   7.124  0.8459 -0.1613 -0.0202
  166POPC   C14 5105   3.501   1.089   7.071 -0.8140 -0.6293  0.0594
  166POPC  H14A 5106   3.478   1.110   7.174  0.6474  0.2387  0.2350
  166POPC  H14B 5107   3.598   1.133   7.055  0.8752 -3.2155  2.2623
  166POPC  H14C 5108   3.433   1.137   7.002 -0.5164 -0.8855 -0.4245
  166POPC   C15 5109   3.396   0.880   7.065  0.0600 -0.3240  0.0280
  166POPC  H15A 5110   3.405   0.773   7.051 -0.7452 -0.6313  1.6405
  166POPC  H15B 5111   3.326   0.903   6.986  0.9016  1.4670 -0.2322
  166POPC  H15C 5112   3.354   0.898   7.163  0.5429 -1.5430  0.4757
  166POPC   C11 5113   3.478   0.994   6.780  0.1831  0.6135 -0.3097
  166POPC  H11A 5114   3.375   0.952   6.785  0.5480 -0.6839 -2.3279
  166POPC  H11B 5115   3.516   0.952   6.684  0.7601 -2.1351  1.0116
  166POPC     P 5116   3.571   1.224   6.732  0.0373 -0.7211  0.0945
  166POPC   O13 5117   3.673   1.247   6.836  0.3992 -0.3874 -0.2283
  166POPC   O14 5118   3.506   1.350   6.672 -0.1267  0.2821 -0.2272
  166POPC   O12 5119   3.459   1.132   6.784  0.0354  0.2866  0.9092
  166POPC   O11 5120   3.639   1.149   6.611 -0.4128 -0.3105 -0.7375
  166POPC    C1 5121   3.610   1.180   6.483 -0.0856 -1.1385 -0.4146
  166POPC    HA 5122   3.615   1.289   6.464 -3.5596 -0.6122  0.9881
  166POPC    HB 5123   3.506   1.154   6.453  0.3291 -2.4055 -0.8192
  166POPC    C2 5124   3.701   1.117   6.379 -0.2461 -0.0646 -0.7525
  166POPC    HS 5125   3.663   1.131   6.275  2.4958 -0.9498 -1.9763
  166POPC   O21 5126   3.722   0.980   6.418 -0.4776  0.6467  0.0159
  166POPC   C21 5127   3.663   0.891   6.336 -0.7409 -0.1165  0.5727
  166POPC   O22 5128   3.603   0.918   6.232  0.3343 -0.2989 -0.3840
  166POPC   C22 5129   3.676   0.757   6.396  0.3204 -0.6493  0.3209
  166POPC   H2R 5130   3.575   0.714   6.409 -0.4855  0.9867 -0.2438
  166POPC   H2S 5131   3.723   0.754   6.497  4.1382  0.5824 -1.2096
  166POPC    C3 5132   3.839   1.195   6.372  0.1715  0.5783 -0.2376
  166POPC    HX 5133   3.897   1.178   6.464 -0.7660  0.5094  0.3523
  166POPC    HY 5134   3.807   1.301   6.381 -2.2812 -0.0429 -0.8922
  166POPC   O31 5135   3.907   1.173   6.243  0.6586 -1.2159 -0.1021
  166POPC   C31 5136   3.996   1.082   6.238  0.4870  0.4086  0.1805
  166POPC   O32 5137   4.060   1.038   6.332  0.1618  0.5066  0.0831
  166POPC   C32 5138   3.992   1.022   6.099 -0.5097  0.2115 -0.8454
  166POPC   H2X 5139   3.961   1.100   6.027  3.3548  1.6231 -1.2423
  166POPC   H2Y 5140   3.919   0.939   6.102 -0.1949 -0.0449  0.2622
  166POPC   C23 5141   3.745   0.657   6.300  0.6506  0.0780  0.3585
  166POPC   H3R 5142   3.778   0.559   6.341  1.7279  0.2395 -0.0921
  166POPC   H3S 5143   3.838   0.711   6.272 -1.3312  1.4821 -4.5226
  166POPC   C24 5144   3.663   0.613   6.168  0.9902 -0.2882  0.6026
  166POPC   H4R 5145   3.635   0.708   6.118 -1.6193 -2.4863 -2.5616
  166POPC   H4S 5146   3.567   0.559   6.185 -0.4216  0.9327 -2.5687
  166POPC   C25 5147   3.746   0.518   6.085 -0.9383  0.1224  0.0268
  166POPC   H5R 5148   3.747   0.417   6.130 -1.5611  1.1732  2.5537
  166POPC   H5S 5149   3.853   0.548   6.083 -0.3733 -1.7939 -0.0427
  166POPC   C26 5150   3.696   0.499   5.939  0.4749  0.9697 -0.0103
  166POPC   H6R 5151   3.768   0.436   5.882 -0.3274  0.0248 -0.0131
  166POPC   H6S 5152   3.704   0.598   5.888 -0.5857  0.9361 -0.2566
  166POPC   C27 5153   3.561   0.429   5.923  0.1033  0.4733  0.5250
  166POPC   H7R 5154   3.482   0.506   5.936 -0.4813 -0.1958  0.9750
  166POPC   H7S 5155   3.542   0.346   5.995  0.1899  0.0041  0.0145
  166POPC   C28 5156   3.531   0.385   5.777 -0.0432  0.1426 -0.8445
  166POPC   H8R 5157   3.564   0.459   5.701  1.9913 -1.8152 -2.0018
  166POPC   H8S 5158   3.422   0.365   5.767 -0.3434  2.0401 -1.6823
  166POPC   C29 5159   3.594   0.247   5.751 -0.1902 -0.5018  1.0369
  166POPC   H91 5160   3.572   0.169   5.826 -0.7731  0.0445  1.4451
  166POPC  C210 5161   3.677   0.211   5.649  0.6157 -0.3436 -0.3198
  166POPC  H101 5162   3.702   0.106   5.630  1.2154 -0.0649 -1.1066
  166POPC  C211 5163   3.724   0.300   5.541 -0.0152 -0.7177  0.3076
  166POPC  H11R 5164   3.672   0.398   5.528  0.0833 -0.3524  2.3980
  166POPC  H11S 5165   3.710   0.250   5.443  0.5126  1.0668 -0.7371
  166POPC  C212 5166   3.866   0.330   5.585  0.5639 -0.1419 -0.1415
  166POPC  H12R 5167   3.922   0.235   5.594 -0.3000 -0.6590 -0.0383
  166POPC  H12S 5168   3.869   0.365   5.690 -0.1035 -1.1579  0.2305
  166POPC  C213 5169   3.940   0.420   5.487 -0.2147 -0.1707 -0.0356
  166POPC  H13R 5170   3.938   0.357   5.395  0.8783 -2.7428  1.5830
  166POPC  H13S 5171   4.046   0.426   5.520  0.9432  0.0973 -3.4429
  166POPC  C214 5172   3.887   0.559   5.461  0.5635 -0.2443  0.6653
  166POPC  H14R 5173   3.787   0.554   5.413  1.2322 -0.6260 -0.7494
  166POPC  H14S 5174   3.949   0.623   5.395  1.5929 -0.7651  1.1047
  166POPC  C215 5175   3.867   0.636   5.587  0.1525 -0.8681 -0.0680
  166POPC  H15R 5176   3.963   0.644   5.643  1.0594  0.2829 -1.6990
  166POPC  H15S 5177   3.800   0.572   5.649 -0.0478 -1.7589 -1.1790
  166POPC  C216 5178   3.797   0.772   5.575 -0.2534  0.1928 -0.0489
  166POPC  H16R 5179   3.696   0.770   5.530 -0.0710  1.0767 -0.5312
  166POPC  H16S 5180   3.859   0.856   5.538 -1.1626  1.7958  1.8701
  166POPC  C217 5181   3.765   0.808   5.722  1.0569  0.5830  0.2856
  166POPC  H17R 5182   3.850   0.790   5.792  2.9557  0.2285 -1.9689
  166POPC  H17S 5183   3.679   0.752   5.764  1.8395 -0.5515  0.4020
  166POPC  C218 5184   3.716   0.956   5.716 -0.0126  0.5204 -0.2594
  166POPC  H18R 5185   3.691   0.988   5.819  1.5809 -0.6593  0.5241
  166POPC  H18S 5186   3.633   0.978   5.646 -1.6326 -1.8775  0.7796
  166POPC  H18T 5187   3.812   1.007   5.691  1.0235 -0.8427  0.7572
  166POPC   C33 5188   4.130   0.953   6.047  0.7193 -0.9394  0.1076
  166POPC   H3X 5189   4.209   1.029   6.068 -2.5242  2.6117  0.7753
  166POPC   H3Y 5190   4.124   0.932   5.938  2.4409  1.6119 -0.5738
  166POPC   C34 5191   4.168   0.826   6.119  0.7590  0.6823 -0.0534
  166POPC   H4X 5192   4.158   0.826   6.230  0.9787 -3.2046  0.1110
  166POPC   H4Y 5193   4.275   0.814   6.095  0.2677 -0.2510 -1.9722
  166POPC   C35 5194   4.094   0.698   6.082  0.7104 -0.4174  0.7895
  166POPC   H5X 5195   3.986   0.726   6.082  0.2711 -1.5275 -3.1281
  166POPC   H5Y 5196   4.098   0.624   6.165  1.5743 -2.0819 -0.6929
  166POPC   C36 5197   4.123   0.635   5.941  0.3880  0.1095  0.3405
  166POPC   H6X 5198   4.093   0.707   5.862 -0.0189  0.7815  1.0821
  166POPC   H6Y 5199   4.049   0.552   5.943  0.7504 -0.2028  1.7544
  166POPC   C37 5200   4.259   0.578   5.919  0.8113  0.4433 -0.0179
  166POPC   H7X 5201   4.283   0.514   6.007 -2.1594 -0.7926 -0.0010
  166POPC   H7Y 5202   4.335   0.659   5.921  0.4235  0.9298 -2.2840
  166POPC   C38 5203   4.274   0.472   5.799  0.0692 -0.1339 -0.6342
  166POPC   H8X 5204   4.264   0.509   5.695 -0.2362 -0.5682 -0.7605
  166POPC   H8Y 5205   4.189   0.403   5.814  0.4669 -0.0263  3.1698
  166POPC   C39 5206   4.399   0.386   5.817 -0.2970 -0.1666  0.0055
  166POPC   H9X 5207   4.399   0.300   5.746 -2.0481 -1.4607  1.4657
  166POPC   H9Y 5208   4.403   0.346   5.921  1.3626  0.0415  0.0340
  166POPC  C310 5209   4.533   0.461   5.795  0.0019  0.1678  0.5800
  166POPC  H10X 5210   4.534   0.556   5.851  3.3667  0.6121  0.0009
  166POPC  H10Y 5211   4.552   0.477   5.686 -1.6759  0.2057  0.2668
  166POPC  C311 5212   4.655   0.376   5.847  0.7859  0.0583 -0.6066
  166POPC  H11X 5213   4.654   0.286   5.782 -1.7861  0.1640 -0.8424
  166POPC  H11Y 5214   4.641   0.356   5.956  2.1494  0.2442 -0.3851
  166POPC  C312 5215   4.779   0.450   5.830 -0.1031 -0.6145 -0.3178
  166POPC  H12X 5216   4.861   0.381   5.859  0.0213 -0.0936  0.6153
  166POPC  H12Y 5217   4.782   0.543   5.891 -1.6229 -1.2789  0.8541
  166POPC  C313 5218   4.810   0.485   5.684 -0.0679  0.1660 -0.7227
  166POPC  H13X 5219   4.749   0.577   5.667  3.2813  2.4625 -1.2249
  166POPC  H13Y 5220   4.783   0.410   5.607 -2.0324  0.2172 -0.1351
  166POPC  C314 5221   4.953   0.538   5.654  0.3511 -0.0584  0.0621
  166POPC  H14X 5222   4.978   0.618   5.728  3.6977 -0.5160 -0.4035
  166POPC  H14Y 5223   4.952   0.606   5.566  0.2612 -0.0461  0.0722
  166POPC  C315 5224   5.065   0.429   5.649 -0.0817  0.0171 -0.4852
  166POPC  H15X 5225   5.083   0.396   5.753  0.7363  1.2497 -0.2224
  166POPC  H15Y 5226   5.163   0.470   5.618 -1.2635  0.7451 -3.6486
  166POPC  C316 5227   5.044   0.314   5.543  0.0485  0.2546 -0.1287
  166POPC  H16X 5228   5.034   0.357   5.441 -0.5928  1.7738  0.5400
  166POPC  H16Y 5229   4.946   0.266   5.567  0.2662  0.7608  1.9309
  166POPC  H16Z 5230   5.132   0.247   5.539 -0.6408 -0.6392 -1.5838
  167POPC     N 5231   1.133   0.387   6.407 -0.3030 -0.0318  0.4334
  167POPC   C12 5232   0.999   0.456   6.425 -0.5743 -0.0200 -0.8858
  167POPC  H12A 5233   1.013   0.563   6.427 -0.9237  0.0159  0.6866
  167POPC  H12B 5234   0.954   0.426   6.518 -1.8701 -1.4996 -1.9249
  167POPC   C13 5235   1.178   0.397   6.269 -0.4880  1.0518 -0.5268
  167POPC  H13A 5236   1.206   0.498   6.245  0.3218  0.8756 -0.3527
  167POPC  H13B 5237   1.260   0.332   6.240 -1.4850 -0.8673  0.6857
  167POPC  H13C 5238   1.093   0.364   6.211 -0.5214 -0.8993  0.5303
  167POPC   C14 5239   1.238   0.465   6.480  0.6321  0.6329 -0.3753
  167POPC  H14A 5240   1.247   0.569   6.452  1.3589  0.4956 -0.6786
  167POPC  H14B 5241   1.214   0.464   6.585  0.0965 -2.5123 -0.4521
  167POPC  H14C 5242   1.337   0.432   6.450  0.6928 -3.0615  3.0647
  167POPC   C15 5243   1.124   0.251   6.472  0.1341 -0.5644 -0.4047
  167POPC  H15A 5244   1.212   0.194   6.447  0.8031  0.9965 -1.8046
  167POPC  H15B 5245   1.041   0.196   6.431  1.3702 -2.5299 -0.4183
  167POPC  H15C 5246   1.122   0.260   6.580  1.0393 -1.0840 -0.3360
  167POPC   C11 5247   0.900   0.414   6.317 -0.4776  0.6429  0.3040
  167POPC  H11A 5248   0.938   0.417   6.213 -1.8294  0.1560 -0.2136
  167POPC  H11B 5249   0.817   0.488   6.319 -0.9376  0.1260  0.8170
  167POPC     P 5250   0.736   0.264   6.451  0.0775 -0.0093  0.0975
  167POPC   O13 5251   0.716   0.390   6.530 -0.3820  0.2775 -0.0192
  167POPC   O14 5252   0.765   0.139   6.528 -0.8574 -0.3404  0.6212
  167POPC   O12 5253   0.854   0.286   6.346  0.2788 -0.0957  0.2162
  167POPC   O11 5254   0.609   0.248   6.364 -0.3343  0.3433  0.1762
  167POPC    C1 5255   0.588   0.174   6.246  0.1343 -1.0338  0.0061
  167POPC    HA 5256   0.484   0.132   6.243  0.4424 -1.8226  0.0420
  167POPC    HB 5257   0.637   0.074   6.252  3.8630  0.6630  0.5559
  167POPC    C2 5258   0.629   0.249   6.121 -0.5340 -0.3936 -0.0137
  167POPC    HS 5259   0.721   0.310   6.136 -0.0002 -0.5949 -2.0881
  167POPC   O21 5260   0.514   0.336   6.092 -0.2868 -0.1765  0.5322
  167POPC   C21 5261   0.534   0.460   6.067 -0.3873  0.1975  0.1382
  167POPC   O22 5262   0.644   0.512   6.059 -0.4465 -0.3805 -0.2761
  167POPC   C22 5263   0.400   0.544   6.058 -0.8188 -0.1611 -0.3308
  167POPC   H2R 5264   0.378   0.544   6.167 -0.1103  2.4273 -0.1167
  167POPC   H2S 5265   0.324   0.478   6.011 -0.1929 -0.7507 -0.5442
  167POPC    C3 5266   0.652   0.162   5.998  0.1002 -0.7059 -0.1186
  167POPC    HX 5267   0.562   0.103   5.968 -0.9441  1.0814 -0.6772
  167POPC    HY 5268   0.730   0.092   6.033 -0.9079 -0.7291  2.2456
  167POPC   O31 5269   0.688   0.234   5.879 -0.3060  0.2441  0.3049
  167POPC   C31 5270   0.814   0.270   5.870  0.4538  0.0060  0.4987
  167POPC   O32 5271   0.896   0.257   5.959 -0.5999  0.5885 -0.6916
  167POPC   C32 5272   0.841   0.338   5.736 -0.2083 -0.1659 -0.5189
  167POPC   H2X 5273   0.828   0.275   5.646 -1.4769  2.6316 -2.4311
  167POPC   H2Y 5274   0.949   0.365   5.734 -0.3446  0.4273 -0.0155
  167POPC   C23 5275   0.415   0.690   6.008  0.7605  0.4061 -0.6354
  167POPC   H3R 5276   0.474   0.760   6.070  1.2383  1.6340 -2.3774
  167POPC   H3S 5277   0.314   0.734   6.020  0.3464 -0.7079  0.0201
  167POPC   C24 5278   0.459   0.691   5.860 -0.1745 -0.4374 -0.2437
  167POPC   H4R 5279   0.568   0.670   5.858 -0.2099 -0.9322  1.5086
  167POPC   H4S 5280   0.437   0.790   5.814 -2.3058 -1.6679 -2.0921
  167POPC   C25 5281   0.377   0.591   5.771 -0.6503 -0.2394  0.3508
  167POPC   H5R 5282   0.270   0.604   5.799 -0.8522  2.0324 -1.1859
  167POPC   H5S 5283   0.416   0.492   5.804  0.7892  0.3066  0.3760
  167POPC   C26 5284   0.412   0.607   5.623  0.3220  0.3285  0.4440
  167POPC   H6R 5285   0.467   0.517   5.588  0.2332  0.3638  0.2121
  167POPC   H6S 5286   0.470   0.701   5.612 -0.7916  0.7336 -3.6389
  167POPC   C27 5287   0.295   0.624   5.520  0.2228  0.3036 -0.3129
  167POPC   H7R 5288   0.231   0.704   5.562  1.7492  0.9925  0.8184
  167POPC   H7S 5289   0.226   0.537   5.516 -2.3265  2.1767  0.0979
  167POPC   C28 5290   0.343   0.663   5.382 -0.0696  0.3264  0.4070
  167POPC   H8R 5291   0.394   0.576   5.335 -1.0074 -1.0242  1.7897
  167POPC   H8S 5292   0.408   0.752   5.371  1.1993 -0.8568 -3.0732
  167POPC   C29 5293   0.224   0.681   5.294  0.2867  0.3906 -0.3291
  167POPC   H91 5294   0.175   0.778   5.315 -0.9392 -0.4951  1.1170
  167POPC  C210 5295   0.182   0.605   5.187 -0.5718  1.3721 -0.0270
  167POPC  H101 5296   0.098   0.631   5.121 -1.4076 -0.4650  0.2480
  167POPC  C211 5297   0.245   0.468   5.160 -0.4279 -0.3046 -0.0215
  167POPC  H11R 5298   0.289   0.422   5.252  0.3012  1.4952  0.5750
  167POPC  H11S 5299   0.337   0.482   5.099 -1.1979  0.1648 -1.0927
  167POPC  C212 5300   0.141   0.380   5.084  0.9511  0.6338 -0.1959
  167POPC  H12R 5301   0.121   0.422   4.983 -2.8118  4.7735  1.9294
  167POPC  H12S 5302   0.041   0.367   5.131 -0.6133  0.7448 -3.2922
  167POPC  C213 5303   0.188   0.233   5.045 -0.0132 -0.4961 -0.8204
  167POPC  H13R 5304   0.288   0.244   4.998  0.7932 -1.1702  0.6221
  167POPC  H13S 5305   0.113   0.183   4.981 -1.0846 -1.2980  0.9767
  167POPC  C214 5306   0.195   0.143   5.166  0.1724  1.0477 -0.1249
  167POPC  H14R 5307   0.091   0.114   5.194  0.9924 -1.9977  0.0319
  167POPC  H14S 5308   0.247   0.188   5.253  1.5559 -4.0455  2.0531
  167POPC  C215 5309   0.271   0.019   5.137 -0.1346 -0.9266 -0.0526
  167POPC  H15R 5310   0.377   0.039   5.110  0.1260 -1.1755  0.7698
  167POPC  H15S 5311   0.233  -0.035   5.047 -0.3490 -0.3088 -0.3404
  167POPC  C216 5312   0.277   6.367   5.248  0.4023 -0.5615 -0.1468
  167POPC  H16R 5313   0.174   6.387   5.284  0.0885  1.5485 -1.9752
  167POPC  H16S 5314   0.347   6.397   5.329 -1.1846 -0.6177  1.2962
  167POPC  C217 5315   0.301   6.223   5.202  0.1373  0.0507  1.1364
  167POPC  H17R 5316   0.411   6.218   5.191  0.2615  4.4305 -2.7375
  167POPC  H17S 5317   0.249   6.201   5.106 -0.6688 -1.8169  1.9458
  167POPC  C218 5318   0.254   6.109   5.293  0.2658 -0.6465  0.1905
  167POPC  H18R 5319   0.143   6.102   5.295  0.1058  1.3482 -0.1601
  167POPC  H18S 5320   0.270   6.144   5.397 -2.3725  1.1323  0.0966
  167POPC  H18T 5321   0.304   6.011   5.277  0.7310 -0.5359  0.9118
  167POPC   C33 5322   0.756   0.462   5.712 -0.4095 -0.5261 -0.3121
  167POPC   H3X 5323   0.794   0.534   5.788  1.1676 -0.7086 -0.8968
  167POPC   H3Y 5324   0.654   0.436   5.748  0.2373  0.6273  2.6640
  167POPC   C34 5325   0.755   0.516   5.567  0.1867 -0.3851 -0.4070
  167POPC   H4X 5326   0.684   0.601   5.554  1.1460  0.7059  1.0595
  167POPC   H4Y 5327   0.725   0.433   5.499 -2.2861 -0.4337  0.6541
  167POPC   C35 5328   0.889   0.599   5.545 -0.0289 -0.9390 -0.6313
  167POPC   H5X 5329   0.983   0.547   5.571  1.1151  0.7398 -1.2594
  167POPC   H5Y 5330   0.878   0.689   5.609  2.2505 -2.3096  1.8958
  167POPC   C36 5331   0.900   0.637   5.400 -0.1494  0.1762  0.6716
  167POPC   H6X 5332   0.808   0.692   5.369 -0.4178 -0.7242 -0.1812
  167POPC   H6Y 5333   0.918   0.545   5.340 -1.4381 -0.4011  1.1253
  167POPC   C37 5334   1.021   0.726   5.387  0.7598 -0.3128 -0.3701
  167POPC   H7X 5335   1.111   0.663   5.405  0.1246 -0.6904  1.6787
  167POPC   H7Y 5336   1.025   0.800   5.470  0.4005 -0.6012 -0.0967
  167POPC   C38 5337   1.023   0.793   5.246  0.1519 -0.1144 -0.1059
  167POPC   H8X 5338   0.936   0.862   5.246  0.7867  0.7043  0.6849
  167POPC   H8Y 5339   1.020   0.716   5.166 -0.3812  1.1161 -1.3243
  167POPC   C39 5340   1.153   0.868   5.223  0.1115  0.7316  0.3354
  167POPC   H9X 5341   1.227   0.799   5.177 -1.2654 -0.0327 -0.8125
  167POPC   H9Y 5342   1.192   0.923   5.312  2.0584  2.2515 -1.3479
  167POPC  C310 5343   1.135   0.980   5.125 -0.2310  0.2569 -0.5110
  167POPC  H10X 5344   1.051   1.040   5.165 -0.5061 -0.3272 -0.1976
  167POPC  H10Y 5345   1.107   0.939   5.025  1.8729 -1.8474 -0.3216
  167POPC  C311 5346   1.268   1.054   5.089  0.1829 -0.2767  0.3673
  167POPC  H11X 5347   1.351   0.985   5.061  0.6130  0.3064  0.1909
  167POPC  H11Y 5348   1.305   1.113   5.175  3.9640  0.9555 -1.8354
  167POPC  C312 5349   1.253   1.154   4.968 -0.3716 -0.2452  0.3738
  167POPC  H12X 5350   1.192   1.114   4.884  2.8104 -0.2534 -2.1276
  167POPC  H12Y 5351   1.355   1.172   4.930  0.4844 -2.5675  1.4105
  167POPC  C313 5352   1.200   1.292   5.012 -0.1034  0.2761  0.3723
  167POPC  H13X 5353   1.243   1.337   5.104  1.8657 -0.2479 -0.2621
  167POPC  H13Y 5354   1.093   1.275   5.041  0.5764 -1.5880  2.0686
  167POPC  C314 5355   1.230   1.391   4.898  0.2696  0.1345 -0.1210
  167POPC  H14X 5356   1.179   1.350   4.808  2.0043 -0.5430 -0.8319
  167POPC  H14Y 5357   1.338   1.397   4.873  0.2421  1.1726 -0.0362
  167POPC  C315 5358   1.191   1.535   4.933  0.7578  0.0361  0.3015
  167POPC  H15X 5359   1.081   1.536   4.949  1.0789  0.9081  3.0302
  167POPC  H15Y 5360   1.217   1.603   4.849  0.5454 -1.8525 -1.3821
  167POPC  C316 5361   1.253   1.598   5.062  0.0475 -0.1827  1.1460
  167POPC  H16X 5362   1.214   1.559   5.159 -1.9676  2.6088  1.5902
  167POPC  H16Y 5363   1.240   1.708   5.075  0.8085  0.4494 -2.3584
  167POPC  H16Z 5364   1.361   1.574   5.053  0.4224  1.1195  1.8268
  168POPC     N 5365   0.256   0.192   6.639 -0.6184  0.1837  0.3202
  168POPC   C12 5366   0.267   0.052   6.682  0.3436 -0.0163 -0.8413
  168POPC  H12A 5367   0.338   0.040   6.762  1.9352 -2.9055 -2.5456
  168POPC  H12B 5368   0.311  -0.009   6.605 -0.0089  0.1213 -1.1533
  168POPC   C13 5369   0.142   0.212   6.551 -0.1830  1.2248  0.4462
  168POPC  H13A 5370   0.142   0.318   6.530 -2.4152  1.8545  3.0384
  168POPC  H13B 5371   0.144   0.155   6.459 -2.4183  2.0387 -0.1757
  168POPC  H13C 5372   0.055   0.174   6.603 -0.0843  0.6289  0.1859
  168POPC   C14 5373   0.246   0.286   6.755  0.6839 -0.2860 -0.4999
  168POPC  H14A 5374   0.242   0.386   6.716 -1.4237 -0.6285 -1.2647
  168POPC  H14B 5375   0.149   0.273   6.800  2.2644 -0.3917  3.3145
  168POPC  H14C 5376   0.320   0.281   6.834 -1.9230  1.1409  2.2319
  168POPC   C15 5377   0.385   0.230   6.577 -0.1578 -0.6894 -0.7201
  168POPC  H15A 5378   0.473   0.184   6.620  0.8641  1.0645 -0.8226
  168POPC  H15B 5379   0.407   0.336   6.568 -2.7814 -0.0469 -0.4269
  168POPC  H15C 5380   0.386   0.191   6.477  1.1959 -2.0478 -0.2196
  168POPC   C11 5381   0.139   6.429   6.729 -0.1711  0.4583 -1.0113
  168POPC  H11A 5382   0.098   6.498   6.806  2.0901  0.7089  0.0281
  168POPC  H11B 5383   0.158   6.341   6.793 -1.1111  0.5812 -0.5487
  168POPC     P 5384   6.341   6.381   6.666  0.4030  0.0999 -0.0870
  168POPC   O13 5385   6.303   0.040   6.768  0.5653 -0.1017  0.3950
  168POPC   O14 5386   6.321   6.239   6.700  0.0769  0.1124 -0.4507
  168POPC   O12 5387   0.045   6.404   6.619  0.6454 -0.0870  0.3580
  168POPC   O11 5388   6.255   6.399   6.536 -0.4044 -0.8376 -0.2187
  168POPC    C1 5389   6.287   6.344   6.409  0.6571  0.4442  0.6458
  168POPC    HA 5390   6.195   6.308   6.358  1.4636  0.9392 -1.2807
  168POPC    HB 5391   6.361   6.261   6.418 -0.3932 -0.3886  1.7802
  168POPC    C2 5392   6.349   0.005   6.314  0.4289  0.2647  0.0639
  168POPC    HS 5393   6.448   0.023   6.361  0.5048  0.4139 -0.1508
  168POPC   O21 5394   6.255   0.113   6.303 -0.9615 -0.1400 -0.7321
  168POPC   C21 5395   6.312   0.234   6.301 -1.0307  0.2306  0.6191
  168POPC   O22 5396   6.434   0.255   6.299  0.2577 -0.2156 -0.8194
  168POPC   C22 5397   6.209   0.340   6.286 -0.0022 -0.4594 -0.3828
  168POPC   H2R 5398   6.258   0.430   6.330  0.6381 -1.1770  0.4289
  168POPC   H2S 5399   6.125   0.326   6.357  1.1356  0.9623  1.3510
  168POPC    C3 5400   6.388   6.410   6.170 -1.1608  0.4391  0.6562
  168POPC    HX 5401   6.293   6.370   6.128 -0.0278 -1.7973  0.0604
  168POPC    HY 5402   6.459   6.326   6.182 -0.8641  0.8694  2.0280
  168POPC   O31 5403   0.006   0.064   6.080  0.0814  0.1127  0.0268
  168POPC   C31 5404   0.133   0.096   6.093  0.1300  0.2425  0.2424
  168POPC   O32 5405   0.215   0.049   6.169 -0.0034 -0.0644  0.0222
  168POPC   C32 5406   0.178   0.216   6.004 -0.3022  0.0016  0.2279
  168POPC   H2X 5407   0.286   0.208   5.978 -0.8250 -0.1212 -2.0738
  168POPC   H2Y 5408   0.150   0.310   6.055  3.5799  0.3905  2.0278
  168POPC   C23 5409   6.153   0.382   6.148 -0.2725  0.3674  0.0868
  168POPC   H3R 5410   6.091   0.472   6.168  2.6767  2.5183  0.2778
  168POPC   H3S 5411   6.109   0.306   6.080  0.9150  0.4882 -0.8433
  168POPC   C24 5412   6.261   0.442   6.057  0.1575 -0.0690  0.0556
  168POPC   H4R 5413   6.206   0.470   5.964 -0.8372 -1.0156  0.3557
  168POPC   H4S 5414   6.328   0.359   6.025 -0.5960 -0.3701 -0.7981
  168POPC   C25 5415   6.322   0.563   6.120 -0.3022  0.1265  0.8830
  168POPC   H5R 5416   6.405   0.520   6.180  1.4203 -0.3663 -1.6694
  168POPC   H5S 5417   6.246   0.601   6.190 -1.8313 -0.8177 -0.2052
  168POPC   C26 5418   6.363   0.675   6.019 -0.1539  0.6668 -0.1216
  168POPC   H6R 5419   6.268   0.706   5.972  0.2468 -0.3461 -1.6838
  168POPC   H6S 5420   6.425   0.630   5.939 -1.0363  0.8353 -0.9111
  168POPC   C27 5421   6.440   0.787   6.093  0.6277  0.0367 -0.3224
  168POPC   H7R 5422   6.525   0.745   6.150  2.6959  4.2197  0.0323
  168POPC   H7S 5423   6.367   0.829   6.165 -0.2711 -4.3708  1.6516
  168POPC   C28 5424   0.059   0.890   5.998  0.2906  0.5643 -0.6288
  168POPC   H8R 5425   0.141   0.836   5.945  0.1915 -1.2861  0.9996
  168POPC   H8S 5426   0.106   0.975   6.052 -1.3641  1.7228 -0.9308
  168POPC   C29 5427   6.403   0.952   5.900 -0.4262 -0.3197 -0.9850
  168POPC   H91 5428   6.327   1.009   5.954 -1.8210 -3.1078  0.1928
  168POPC  C210 5429   6.390   0.934   5.766  0.2977 -0.0418 -0.5324
  168POPC  H101 5430   6.313   0.996   5.718  2.1666  1.5289 -1.6571
  168POPC  C211 5431   0.031   0.842   5.681 -0.0134  0.0812  0.0202
  168POPC  H11R 5432   0.099   0.776   5.740 -0.0349  0.0137 -0.0296
  168POPC  H11S 5433   0.098   0.905   5.618 -1.0232  0.0299 -1.1340
  168POPC  C212 5434   6.384   0.757   5.587  0.2794 -0.6154  1.2003
  168POPC  H12R 5435   6.296   0.720   5.644  0.2471  0.1920  1.6780
  168POPC  H12S 5436   6.437   0.675   5.533  0.4971  0.7145 -0.7181
  168POPC  C213 5437   6.341   0.847   5.471 -1.1984 -0.0645 -0.0326
  168POPC  H13R 5438   6.431   0.892   5.424 -0.9291 -0.2283  0.3253
  168POPC  H13S 5439   6.286   0.932   5.517 -0.3276  1.4074 -1.5778
  168POPC  C214 5440   6.261   0.772   5.368 -0.0698  0.1238 -0.0026
  168POPC  H14R 5441   6.161   0.732   5.395  0.3313 -1.5190 -0.8095
  168POPC  H14S 5442   6.318   0.678   5.348 -0.1788  0.0404  0.0825
  168POPC  C215 5443   6.247   0.838   5.229  0.0700  0.0657 -0.7662
  168POPC  H15R 5444   6.340   0.897   5.218 -0.0645  0.7537  1.4067
  168POPC  H15S 5445   6.160   0.907   5.236  0.6058  0.6229  0.8756
  168POPC  C216 5446   6.234   0.735   5.120 -0.3632 -0.2485  0.3435
  168POPC  H16R 5447   6.147   0.679   5.159 -0.4217 -0.6507 -0.3435
  168POPC  H16S 5448   6.329   0.676   5.119  0.0312  0.3558 -1.2256
  168POPC  C217 5449   6.223   0.784   4.975  0.3095 -0.4417 -0.2215
  168POPC  H17R 5450   6.135   0.851   4.983  0.6243 -0.0965  0.4786
  168POPC  H17S 5451   6.208   0.689   4.921  0.6437 -0.2397 -0.6787
  168POPC  C218 5452   6.351   0.843   4.915  0.7924  0.2641 -0.7932
  168POPC  H18R 5453   6.368   0.934   4.977  0.0081 -0.1423  0.0485
  168POPC  H18S 5454   6.344   0.870   4.808  0.3917 -2.1851 -1.4490
  168POPC  H18T 5455   6.437   0.773   4.927  0.6206  0.1474 -0.2387
  168POPC   C33 5456   0.100   0.204   5.875 -0.0786  0.1277  0.5008
  168POPC   H3X 5457  -0.001   0.245   5.897  0.0484  1.6069 -1.3835
  168POPC   H3Y 5458   0.099   0.101   5.834  0.0114  0.4070 -0.2374
  168POPC   C34 5459   0.163   0.284   5.757 -0.6204  0.5722  0.3071
  168POPC   H4X 5460   0.269   0.253   5.741 -1.3364 -2.3510  0.5732
  168POPC   H4Y 5461   0.164   0.390   5.788  2.5267  0.5857  0.5418
  168POPC   C35 5462   0.094   0.258   5.621 -0.4813 -0.6079 -0.9554
  168POPC   H5X 5463   0.083   0.150   5.597 -0.3650 -0.3598 -2.2275
  168POPC   H5Y 5464   0.158   0.299   5.540 -0.3555 -0.4758 -0.7874
  168POPC   C36 5465   6.405   0.328   5.612 -0.2930  1.3340 -0.0061
  168POPC   H6X 5466   6.433   0.435   5.614  1.1239  0.9738  1.5968
  168POPC   H6Y 5467   6.336   0.312   5.697 -0.4230  1.8256 -0.0201
  168POPC   C37 5468   6.329   0.307   5.479  0.0548 -0.0015 -0.2262
  168POPC   H7X 5469   6.309   0.199   5.462  1.8911 -0.1985 -1.4750
  168POPC   H7Y 5470   6.406   0.319   5.399  2.4044  0.5661  2.0006
  168POPC   C38 5471   6.208   0.394   5.462  0.5141  0.3810 -0.1656
  168POPC   H8X 5472   6.229   0.502   5.444 -2.0413  0.4238 -3.9479
  168POPC   H8Y 5473   6.140   0.394   5.550  1.0074 -1.2670  0.2513
  168POPC   C39 5474   6.123   0.353   5.343 -0.0401 -0.2752 -0.0718
  168POPC   H9X 5475   6.062   0.444   5.326  0.7710  0.3667  0.3544
  168POPC   H9Y 5476   6.067   0.258   5.358 -1.2259  0.4696  0.3659
  168POPC  C310 5477   6.218   0.340   5.217 -0.4778  0.5335  0.6447
  168POPC  H10X 5478   6.275   0.245   5.224 -0.4509  0.5464  0.5996
  168POPC  H10Y 5479   6.294   0.421   5.211 -1.2712  1.3521  1.4503
  168POPC  C311 5480   6.150   0.343   5.082 -0.4228 -0.1921 -1.1048
  168POPC  H11X 5481   6.099   0.441   5.067 -0.1042  0.5443  2.0009
  168POPC  H11Y 5482   6.078   0.258   5.084  1.6321 -1.9951 -0.7980
  168POPC  C312 5483   6.241   0.315   4.963  0.2351 -0.0522  0.0317
  168POPC  H12X 5484   6.295   0.219   4.975 -2.3690 -1.4193  1.8522
  168POPC  H12Y 5485   6.319   0.392   4.947  0.7280 -0.3610  0.8811
  168POPC  C313 5486   6.158   0.293   4.840  0.0415 -0.8190  0.2204
  168POPC  H13X 5487   6.095   0.384   4.830  0.3989 -0.5942 -0.0338
  168POPC  H13Y 5488   6.102   0.198   4.842 -0.8045 -0.4064 -1.7461
  168POPC  C314 5489   6.249   0.280   4.712 -0.3631  0.0601  0.3567
  168POPC  H14X 5490   6.328   0.204   4.730  0.1171  0.7527  1.3250
  168POPC  H14Y 5491   6.298   0.377   4.686 -0.6878  0.0582 -0.2758
  168POPC  C315 5492   6.177   0.228   4.586 -0.1787 -0.0303 -0.6585
  168POPC  H15X 5493   6.260   0.226   4.512 -0.1218 -1.1854 -0.5732
  168POPC  H15Y 5494   6.092   0.293   4.557  0.0012  2.1262  3.0716
  168POPC  C316 5495   6.136   0.079   4.594 -0.6163  0.7054 -0.5782
  168POPC  H16X 5496   6.065   0.056   4.512  0.8896 -2.6431 -1.1167
  168POPC  H16Y 5497   6.078   0.060   4.687 -0.8734  0.9938 -0.6800
  168POPC  H16Z 5498   6.220   0.005   4.596 -1.4176 -0.2174  0.0976
  169POPC     N 5499   6.304   2.568   6.723  0.4951 -0.4432  0.0677
  169POPC   C12 5500   6.281   2.591   6.572  0.0488 -0.9202  0.2745
  169POPC  H12A 5501   6.298   2.697   6.566 -0.3467 -0.8969 -0.4810
  169POPC  H12B 5502   6.178   2.573   6.547  1.1513 -3.5974 -3.2470
  169POPC   C13 5503   6.424   2.641   6.769  0.1403 -0.1809  0.0564
  169POPC  H13A 5504   6.443   2.628   6.874  1.8558  0.3857 -0.1573
  169POPC  H13B 5505   6.514   2.611   6.717 -0.2813 -1.7423  0.1854
  169POPC  H13C 5506   6.394   2.744   6.760 -0.2655 -0.1410  1.6559
  169POPC   C14 5507   6.189   2.619   6.804 -0.3085 -0.6930  0.1718
  169POPC  H14A 5508   6.186   2.725   6.787 -1.2195 -0.3853  2.0446
  169POPC  H14B 5509   6.096   2.573   6.774  0.4036 -1.1564 -1.4288
  169POPC  H14C 5510   6.203   2.600   6.909  1.2188  1.9888  0.5380
  169POPC   C15 5511   6.332   2.421   6.745 -0.0080 -0.5327  0.3580
  169POPC  H15A 5512   6.355   2.413   6.851 -2.4106  0.0940  0.9933
  169POPC  H15B 5513   6.418   2.393   6.687  0.5953 -0.3439  1.1379
  169POPC  H15C 5514   6.240   2.366   6.736 -1.5126  2.0428 -1.3704
  169POPC   C11 5515   6.372   2.528   6.459 -0.2203 -0.9098 -0.3965
  169POPC  H11A 5516   6.344   2.585   6.368  3.7762 -0.6210 -1.6662
  169POPC  H11B 5517   6.347   2.420   6.457  0.4598 -1.0903  0.3269
  169POPC     P 5518   0.167   2.481   6.380 -0.0774  0.0412  0.1541
  169POPC   O13 5519   0.162   2.336   6.397  0.7189  0.1701 -0.0654
  169POPC   O14 5520   0.301   2.548   6.376  0.5225 -0.1862  0.5678
  169POPC   O12 5521   0.067   2.559   6.479 -0.5364 -0.2524 -0.0588
  169POPC   O11 5522   0.106   2.509   6.231  0.0787 -0.1201 -0.2829
  169POPC    C1 5523   0.191   2.514   6.118  0.2386  0.1023 -0.6083
  169POPC    HA 5524   0.300   2.522   6.135  0.9462  1.2481 -4.5716
  169POPC    HB 5525   0.172   2.602   6.053  2.1920 -0.2701 -1.7577
  169POPC    C2 5526   0.180   2.393   6.014  0.5461  0.5247 -0.1544
  169POPC    HS 5527   0.259   2.416   5.938  0.0009  0.4919 -0.7444
  169POPC   O21 5528   0.049   2.383   5.952  0.1196  0.0575  0.7917
  169POPC   C21 5529   0.003   2.466   5.859 -0.1585  0.1100 -0.1821
  169POPC   O22 5530   0.048   2.576   5.830 -0.3582 -0.1772  0.7375
  169POPC   C22 5531   6.323   2.408   5.784 -0.2638 -1.1249 -0.2226
  169POPC   H2R 5532   6.289   2.487   5.715  0.5235 -0.2400  0.3751
  169POPC   H2S 5533   6.253   2.385   5.868 -1.0494 -2.0363 -1.1037
  169POPC    C3 5534   0.211   2.257   6.084 -0.6826 -0.1186 -0.3722
  169POPC    HX 5535   0.125   2.208   6.135 -1.3471  0.5547 -0.8102
  169POPC    HY 5536   0.287   2.275   6.163  2.6514 -0.5414 -3.2471
  169POPC   O31 5537   0.272   2.164   5.987  0.1891 -0.2289  0.0846
  169POPC   C31 5538   0.275   2.036   6.023  0.0218 -0.2882 -0.1469
  169POPC   O32 5539   0.240   1.992   6.129 -0.0308 -0.3478 -0.7818
  169POPC   C32 5540   0.325   1.949   5.909 -0.1216 -0.0615 -0.3471
  169POPC   H2X 5541   0.395   1.877   5.956 -1.3136  0.7350  2.9103
  169POPC   H2Y 5542   0.378   1.997   5.825 -0.3056 -0.6216 -0.7940
  169POPC   C23 5543   6.349   2.272   5.714 -0.4635  0.0905 -0.1258
  169POPC   H3R 5544   6.256   2.220   5.683  0.3092 -2.5348  1.6304
  169POPC   H3S 5545   6.402   2.203   5.784 -1.2921  0.9257  1.3687
  169POPC   C24 5546   6.447   2.280   5.596 -0.3968 -0.3512  0.0479
  169POPC   H4R 5547   6.453   2.383   5.556 -0.5743 -0.9287 -1.5545
  169POPC   H4S 5548   6.408   2.212   5.517  0.2753 -0.6700 -0.0177
  169POPC   C25 5549   0.141   2.231   5.635  0.1767 -0.3302 -0.1860
  169POPC   H5R 5550   0.142   2.164   5.723  2.0327 -0.0994  0.0017
  169POPC   H5S 5551   0.212   2.312   5.661  0.6214 -0.3710 -1.2379
  169POPC   C26 5552   0.201   2.139   5.524 -0.7445  0.1541  0.3029
  169POPC   H6R 5553   0.144   2.044   5.519  0.3573 -0.4882 -0.3266
  169POPC   H6S 5554   0.306   2.120   5.554 -0.3392  2.7981  0.8210
  169POPC   C27 5555   0.215   2.212   5.391  0.4803 -1.2724 -0.2956
  169POPC   H7R 5556   0.273   2.304   5.414  2.4676 -2.0489 -1.9138
  169POPC   H7S 5557   0.111   2.231   5.356  0.6330 -0.7564 -0.4871
  169POPC   C28 5558   0.302   2.158   5.284  0.2860  0.3865 -0.9151
  169POPC   H8R 5559   0.405   2.147   5.325 -0.5869 -0.5613  1.1585
  169POPC   H8S 5560   0.312   2.236   5.206  0.5106  1.7878  0.4695
  169POPC   C29 5561   0.262   2.023   5.235 -0.3284 -0.4721  0.1636
  169POPC   H91 5562   0.303   1.938   5.291 -0.4766 -0.9539 -0.4560
  169POPC  C210 5563   0.177   2.003   5.138 -0.4886  0.0949  0.3522
  169POPC  H101 5564   0.153   1.897   5.116  0.8918 -0.2338  0.3303
  169POPC  C211 5565   0.111   2.102   5.049 -0.2829 -0.0560  1.3870
  169POPC  H11R 5566   0.125   2.206   5.085 -0.5376 -0.2436  2.0543
  169POPC  H11S 5567   0.002   2.085   5.053 -0.0960 -1.2999  1.7293
  169POPC  C212 5568   0.157   2.101   4.906  0.2652 -0.7338  0.3096
  169POPC  H12R 5569   0.085   2.170   4.856 -1.7449 -2.1483  1.0936
  169POPC  H12S 5570   0.148   2.009   4.845  0.9070  0.9867 -2.5682
  169POPC  C213 5571   0.296   2.165   4.886  0.4011  0.0224  0.3592
  169POPC  H13R 5572   0.381   2.102   4.919  1.0069  0.8801  0.4639
  169POPC  H13S 5573   0.300   2.262   4.940 -0.8745  1.0263 -1.2546
  169POPC  C214 5574   0.314   2.198   4.739 -0.1083  0.0495  0.1812
  169POPC  H14R 5575   0.227   2.254   4.698  1.2259  1.0372 -1.4931
  169POPC  H14S 5576   0.317   2.107   4.675 -0.3413  0.2760 -0.1579
  169POPC  C215 5577   0.441   2.277   4.701  0.0229  0.2356 -0.6631
  169POPC  H15R 5578   0.437   2.371   4.760 -0.4548  0.2404 -0.6938
  169POPC  H15S 5579   0.432   2.307   4.594 -1.2530 -0.0155 -0.6417
  169POPC  C216 5580   0.571   2.201   4.721 -0.0945 -1.2557 -0.0674
  169POPC  H16R 5581   0.579   2.140   4.813 -0.4113 -0.2695  0.6285
  169POPC  H16S 5582   0.653   2.275   4.732 -0.2434 -1.1074  0.0533
  169POPC  C217 5583   0.610   2.097   4.607  0.1725 -0.7700  0.2309
  169POPC  H17R 5584   0.530   2.023   4.589  0.3473 -0.4206 -2.5499
  169POPC  H17S 5585   0.702   2.038   4.628  0.6608 -0.1694 -0.1722
  169POPC  C218 5586   0.628   2.167   4.474 -0.5185  0.5058 -0.1032
  169POPC  H18R 5587   0.707   2.243   4.490 -1.6201  1.9566 -1.1969
  169POPC  H18S 5588   0.547   2.229   4.428  0.1092  1.5978  0.2244
  169POPC  H18T 5589   0.674   2.099   4.399  0.3745  1.0249 -0.0306
  169POPC   C33 5590   0.203   1.875   5.844  1.3475  0.3638 -0.4245
  169POPC   H3X 5591   0.118   1.941   5.818 -0.6580 -1.7770  0.3402
  169POPC   H3Y 5592   0.171   1.800   5.920  0.1933  0.0685 -1.1705
  169POPC   C34 5593   0.243   1.813   5.710 -0.5357  0.6348 -0.0920
  169POPC   H4X 5594   0.321   1.737   5.732  0.0115  1.4049  0.6862
  169POPC   H4Y 5595   0.294   1.900   5.664 -0.2605  0.7454  0.4213
  169POPC   C35 5596   0.136   1.747   5.629 -0.0087 -0.5544 -0.3785
  169POPC   H5X 5597   0.138   1.642   5.664 -2.0617 -0.0975  1.3497
  169POPC   H5Y 5598   0.168   1.738   5.523  0.7009  1.4094 -0.3717
  169POPC   C36 5599   6.437   1.810   5.627 -0.4819  0.5716 -0.0784
  169POPC   H6X 5600   6.439   1.917   5.599  0.5129  0.6138  0.1522
  169POPC   H6Y 5601   6.409   1.811   5.735  0.2363  1.8804  0.1090
  169POPC   C37 5602   6.343   1.741   5.534  1.1331  0.6678  0.0017
  169POPC   H7X 5603   6.239   1.776   5.551  0.8487  1.3389 -2.6716
  169POPC   H7Y 5604   6.359   1.631   5.540  0.6016  0.6351  1.0926
  169POPC   C38 5605   6.374   1.798   5.394 -0.3191  0.3062 -0.1024
  169POPC   H8X 5606   6.471   1.747   5.373 -0.5719  0.0881 -0.7792
  169POPC   H8Y 5607   6.397   1.907   5.394  2.5252 -0.1755 -1.9356
  169POPC   C39 5608   6.264   1.765   5.294 -0.0562 -0.4432 -0.3217
  169POPC   H9X 5609   6.185   1.843   5.305  1.4032  0.7836  2.3085
  169POPC   H9Y 5610   6.210   1.674   5.328  0.7169  0.0331  2.3919
  169POPC  C310 5611   6.326   1.737   5.158 -0.5979  0.5315  0.1713
  169POPC  H10X 5612   6.408   1.662   5.173  0.0576  0.8727 -1.4637
  169POPC  H10Y 5613   6.381   1.830   5.134  0.3562 -0.5173 -2.0649
  169POPC  C311 5614   6.221   1.723   5.047 -0.1415 -0.0575 -0.7469
  169POPC  H11X 5615   6.160   1.816   5.045 -2.4488 -1.4323  0.9682
  169POPC  H11Y 5616   6.159   1.635   5.075 -0.2736  0.6073  1.1854
  169POPC  C312 5617   6.289   1.687   4.910  0.9418 -0.2109 -0.4295
  169POPC  H12X 5618   6.323   1.582   4.896  1.0506 -0.1018 -1.0265
  169POPC  H12Y 5619   6.383   1.746   4.916  0.3210  0.6819  0.9643
  169POPC  C313 5620   6.209   1.742   4.787  1.0827  0.0640 -0.2556
  169POPC  H13X 5621   6.213   1.852   4.808  1.9208  0.1686 -0.9024
  169POPC  H13Y 5622   6.106   1.702   4.798  1.6247 -1.2612  0.1542
  169POPC  C314 5623   6.277   1.730   4.650  0.7328  0.5804 -0.1309
  169POPC  H14X 5624   6.383   1.761   4.659  0.7437  0.3877  0.3935
  169POPC  H14Y 5625   6.235   1.808   4.583 -1.1769 -0.7039 -0.5147
  169POPC  C315 5626   6.257   1.599   4.574 -0.0060 -0.0263 -0.1490
  169POPC  H15X 5627   6.332   1.582   4.495  0.0587 -2.1627  0.2981
  169POPC  H15Y 5628   6.157   1.601   4.526  0.1937 -2.2841 -0.7484
  169POPC  C316 5629   6.281   1.455   4.647 -0.5677 -0.0857  0.3779
  169POPC  H16X 5630   6.221   1.383   4.588  2.3960 -1.4498 -1.2153
  169POPC  H16Y 5631   6.248   1.457   4.753  1.7442 -0.5978  1.1703
  169POPC  H16Z 5632   6.388   1.426   4.640 -0.2621  1.1919 -0.7269
  170POPC     N 5633   5.771   4.695   6.923 -0.1418 -0.2519  0.4816
  170POPC   C12 5634   5.684   4.767   6.824 -0.2541 -0.5208  0.4847
  170POPC  H12A 5635   5.595   4.798   6.878  0.0979  1.7475 -0.1098
  170POPC  H12B 5636   5.645   4.701   6.747  0.2558 -2.0439  1.5027
  170POPC   C13 5637   5.678   4.597   6.997  0.3413 -0.6815  0.8937
  170POPC  H13A 5638   5.597   4.648   7.047  0.9602 -0.0853  1.3145
  170POPC  H13B 5639   5.634   4.534   6.922  0.7476 -0.2757  0.3069
  170POPC  H13C 5640   5.730   4.532   7.066 -0.5499 -1.0105  1.2601
  170POPC   C14 5641   5.884   4.620   6.850  0.5628  0.4532  0.0594
  170POPC  H14A 5642   5.937   4.562   6.924  0.1546  1.2830  1.0190
  170POPC  H14B 5643   5.844   4.551   6.777  1.0677 -0.2296  0.4168
  170POPC  H14C 5644   5.946   4.687   6.792 -1.7230  0.2523 -2.8827
  170POPC   C15 5645   5.825   4.787   7.023 -0.2659 -0.5640  0.6258
  170POPC  H15A 5646   5.891   4.859   6.976 -1.0324 -0.0310  0.3380
  170POPC  H15B 5647   5.881   4.734   7.098  1.1480 -0.6624 -0.4501
  170POPC  H15C 5648   5.748   4.846   7.070 -0.9896  0.5248 -1.7759
  170POPC   C11 5649   5.740   4.888   6.748 -0.2661 -0.4862  0.3219
  170POPC  H11A 5650   5.776   4.971   6.812 -0.8186  0.7682 -0.9226
  170POPC  H11B 5651   5.656   4.932   6.689 -0.5654 -2.3639 -0.7419
  170POPC     P 5652   5.949   4.934   6.597  0.4384 -0.0982 -0.0792
  170POPC   O13 5653   6.047   4.844   6.534  0.0799  0.0768 -0.0632
  170POPC   O14 5654   6.001   5.030   6.703  0.4877 -0.2590  0.1244
  170POPC   O12 5655   5.833   4.844   6.656 -0.1625  0.0368  0.0039
  170POPC   O11 5656   5.878   5.022   6.492  0.2327 -0.0272 -0.0308
  170POPC    C1 5657   5.810   4.959   6.385 -0.1689 -0.0085  0.0217
  170POPC    HA 5658   5.713   5.011   6.373  0.9435  1.9153 -1.1421
  170POPC    HB 5659   5.785   4.852   6.399  1.6853 -0.5411 -0.4535
  170POPC    C2 5660   5.901   4.962   6.264  0.4590  0.1220 -0.2583
  170POPC    HS 5661   5.999   4.933   6.308  0.1098 -0.0178  0.4468
  170POPC   O21 5662   5.888   5.094   6.211 -0.1051  0.0671 -0.1350
  170POPC   C21 5663   5.999   5.141   6.170 -0.1236  0.7479 -0.4091
  170POPC   O22 5664   6.100   5.070   6.167 -0.2741 -0.3672  0.3030
  170POPC   C22 5665   5.988   5.282   6.114 -0.4431 -0.0201 -0.4036
  170POPC   H2R 5666   6.006   5.347   6.203 -0.5011 -0.3650 -0.1398
  170POPC   H2S 5667   5.883   5.295   6.082 -0.7609  0.9356  0.9346
  170POPC    C3 5668   5.850   4.859   6.155  0.2991  0.0533  0.0848
  170POPC    HX 5669   5.740   4.877   6.148  0.4856  0.5103 -2.7150
  170POPC    HY 5670   5.859   4.758   6.201  0.8103  0.5756  1.1812
  170POPC   O31 5671   5.907   4.881   6.029 -0.5649 -0.2371 -0.1425
  170POPC   C31 5672   6.007   4.798   6.000  0.4723 -0.1610  0.1010
  170POPC   O32 5673   6.069   4.732   6.079  0.1331 -0.2638  0.3214
  170POPC   C32 5674   6.045   4.809   5.853 -0.2399 -0.3649  0.1973
  170POPC   H2X 5675   6.134   4.876   5.849 -1.2314  1.0234  0.5855
  170POPC   H2Y 5676   5.957   4.847   5.797  0.4503  0.6681 -0.2207
  170POPC   C23 5677   6.080   5.305   5.989  0.7459  0.1581  0.2152
  170POPC   H3R 5678   6.179   5.254   5.985  1.5484  1.7139 -2.0205
  170POPC   H3S 5679   6.107   5.412   5.997  1.3777 -0.0136  0.4399
  170POPC   C24 5680   5.999   5.266   5.866 -0.2817 -0.1450 -0.3561
  170POPC   H4R 5681   5.897   5.309   5.866  0.3961  1.6037  0.9895
  170POPC   H4S 5682   5.981   5.156   5.863  0.3808 -0.2341 -2.0020
  170POPC   C25 5683   6.079   5.308   5.740  0.8954 -0.0831 -0.2629
  170POPC   H5R 5684   6.183   5.280   5.767  0.3641 -1.2070  0.6851
  170POPC   H5S 5685   6.065   5.417   5.721  0.9443  0.1529  0.9909
  170POPC   C26 5686   6.031   5.244   5.607 -0.0126  0.0962 -0.0033
  170POPC   H6R 5687   5.922   5.225   5.619 -0.0295 -0.4683 -0.9456
  170POPC   H6S 5688   6.081   5.146   5.601  1.2550  0.7566 -0.5120
  170POPC   C27 5689   6.050   5.307   5.466  0.0880  0.0449  0.4687
  170POPC   H7R 5690   6.010   5.241   5.387 -0.6787 -0.0741  0.9337
  170POPC   H7S 5691   6.159   5.317   5.448 -0.2246  1.4745 -0.8424
  170POPC   C28 5692   5.986   5.455   5.454 -0.0775  0.3750 -0.2043
  170POPC   H8R 5693   6.022   5.525   5.532 -0.5055  0.1211  0.2245
  170POPC   H8S 5694   5.877   5.454   5.471  0.0793  1.6899  0.9443
  170POPC   C29 5695   6.025   5.518   5.328  0.5722 -0.1832 -0.2728
  170POPC   H91 5696   6.128   5.557   5.325  1.0595 -1.1867  1.5373
  170POPC  C210 5697   5.958   5.520   5.212 -0.0007 -0.4488 -0.3609
  170POPC  H101 5698   6.011   5.568   5.129  0.8374  0.2786  0.5648
  170POPC  C211 5699   5.837   5.457   5.171 -0.1023  0.0126  0.3521
  170POPC  H11R 5700   5.758   5.527   5.135 -1.0490 -1.7513 -1.1712
  170POPC  H11S 5701   5.788   5.429   5.267 -0.7666 -2.1844 -0.5736
  170POPC  C212 5702   5.849   5.345   5.064 -0.3121  0.3751  0.2792
  170POPC  H12R 5703   5.935   5.284   5.100  0.5358  0.8544 -0.8732
  170POPC  H12S 5704   5.875   5.400   4.972  0.2345  0.0998  0.2646
  170POPC  C213 5705   5.723   5.253   5.051 -0.2062  0.0353 -0.1982
  170POPC  H13R 5706   5.721   5.201   5.149  2.1177  2.0630  1.0583
  170POPC  H13S 5707   5.729   5.187   4.962  2.1353 -0.3969  0.2103
  170POPC  C214 5708   5.592   5.344   5.021  0.1032  0.3203 -0.5643
  170POPC  H14R 5709   5.612   5.390   4.922 -2.2639 -0.5095 -1.4979
  170POPC  H14S 5710   5.588   5.420   5.101 -0.2120  0.3254 -0.5827
  170POPC  C215 5711   5.464   5.269   5.022  0.8854 -0.1364  0.3541
  170POPC  H15R 5712   5.386   5.348   5.018  0.1615 -0.8580 -1.7156
  170POPC  H15S 5713   5.454   5.202   5.110  4.9770 -0.8171  0.5095
  170POPC  C216 5714   5.447   5.183   4.902 -0.3994  0.1153 -0.3846
  170POPC  H16R 5715   5.517   5.097   4.901 -3.7786 -2.8960 -1.6557
  170POPC  H16S 5716   5.481   5.235   4.810  2.0315 -0.7000 -0.0180
  170POPC  C217 5717   5.312   5.136   4.863  0.3525 -0.3045  0.1167
  170POPC  H17R 5718   5.240   5.220   4.854 -2.1457 -2.2461  0.8694
  170POPC  H17S 5719   5.265   5.082   4.948  1.0814 -1.9195 -0.4849
  170POPC  C218 5720   5.303   5.056   4.734 -0.2757  0.0179 -0.2181
  170POPC  H18R 5721   5.200   5.022   4.712  0.0477 -1.5889  0.6074
  170POPC  H18S 5722   5.358   4.960   4.747 -1.2194 -0.6635 -1.1586
  170POPC  H18T 5723   5.346   5.118   4.652 -1.1605 -1.4436 -1.8339
  170POPC   C33 5724   6.096   4.676   5.790  0.1669 -0.4090  0.0572
  170POPC   H3X 5725   6.020   4.598   5.811  0.1706 -0.1026  1.2324
  170POPC   H3Y 5726   6.194   4.651   5.836  2.7652 -0.6295 -4.9027
  170POPC   C34 5727   6.115   4.684   5.642  0.3016  0.1294 -0.0527
  170POPC   H4X 5728   6.188   4.765   5.623  0.9950 -0.1778  1.1974
  170POPC   H4Y 5729   6.017   4.704   5.594 -0.5722  2.4406  2.3936
  170POPC   C35 5730   6.168   4.550   5.587  0.1081 -0.3957  0.1894
  170POPC   H5X 5731   6.097   4.473   5.622  1.9189 -1.1047  2.5508
  170POPC   H5Y 5732   6.268   4.529   5.632  0.1773 -0.8706 -0.1900
  170POPC   C36 5733   6.200   4.553   5.437 -0.1614  0.0714  0.0867
  170POPC   H6X 5734   6.297   4.604   5.417  0.0093 -0.1755  0.2848
  170POPC   H6Y 5735   6.114   4.604   5.389 -0.4856  0.0734  0.6715
  170POPC   C37 5736   6.217   4.414   5.372 -0.1463 -0.0261  0.8149
  170POPC   H7X 5737   6.125   4.354   5.389 -0.0022 -0.4869  0.0041
  170POPC   H7Y 5738   6.294   4.346   5.414 -1.2916 -2.4721 -0.8127
  170POPC   C38 5739   6.236   4.425   5.216  0.1372  0.2115 -0.0667
  170POPC   H8X 5740   6.252   4.321   5.181  0.3193 -0.0329  0.7272
  170POPC   H8Y 5741   6.327   4.483   5.188  0.2900 -1.3159 -3.1335
  170POPC   C39 5742   6.105   4.480   5.152 -0.0541  0.5769  0.1961
  170POPC   H9X 5743   6.107   4.591   5.159  1.7223  0.9137 -3.2096
  170POPC   H9Y 5744   6.020   4.437   5.209 -0.7505  0.4742 -0.8869
  170POPC  C310 5745   6.086   4.433   5.006  0.3682  0.6045  0.0938
  170POPC  H10X 5746   6.059   4.325   4.996  2.4082  0.2054 -1.8080
  170POPC  H10Y 5747   6.179   4.454   4.949  0.5873 -0.1422  0.1653
  170POPC  C311 5748   5.975   4.512   4.926  0.4220  0.1839 -0.1994
  170POPC  H11X 5749   6.015   4.615   4.916 -0.0675  0.3452 -0.5545
  170POPC  H11Y 5750   5.886   4.515   4.993  1.8971 -0.0393  1.8522
  170POPC  C312 5751   5.937   4.471   4.781  0.0424  0.1595 -0.3615
  170POPC  H12X 5752   6.028   4.425   4.736  0.1475 -1.8889  1.7530
  170POPC  H12Y 5753   5.899   4.557   4.722 -1.5654  0.5450  1.1510
  170POPC  C313 5754   5.824   4.366   4.768 -0.2499 -0.1398  0.2627
  170POPC  H13X 5755   5.745   4.392   4.841 -1.3432 -1.7643 -0.2894
  170POPC  H13Y 5756   5.864   4.267   4.800  0.7386  0.1969  0.1161
  170POPC  C314 5757   5.757   4.345   4.632 -0.7323 -0.8566 -0.8560
  170POPC  H14X 5758   5.766   4.441   4.575  0.1385 -1.1639 -1.2663
  170POPC  H14Y 5759   5.655   4.318   4.664 -0.1836 -1.3213  0.5902
  170POPC  C315 5760   5.816   4.232   4.545 -0.4342  0.3475 -0.4891
  170POPC  H15X 5761   5.817   4.137   4.603 -1.2476  1.6979  1.8664
  170POPC  H15Y 5762   5.922   4.262   4.528 -0.5177 -0.3260 -2.4203
  170POPC  C316 5763   5.747   4.209   4.407 -0.3038  0.1395 -0.1526
  170POPC  H16X 5764   5.797   4.135   4.341  0.3386  0.8568 -0.4765
  170POPC  H16Y 5765   5.749   4.308   4.358  1.9237 -0.3380 -1.1165
  170POPC  H16Z 5766   5.638   4.185   4.410 -0.4000 -0.1303 -3.0284
  171POPC     N 5767   1.801   4.408   6.683 -0.6110  0.0584  0.5128
  171POPC   C12 5768   1.934   4.480   6.675 -0.7354 -0.7170 -0.3924
  171POPC  H12A 5769   1.912   4.577   6.633 -0.5003 -1.5111 -2.4304
  171POPC  H12B 5770   1.987   4.426   6.599  1.2258 -0.7866  0.9524
  171POPC   C13 5771   1.816   4.260   6.699 -0.5125  0.0959  0.0044
  171POPC  H13A 5772   1.863   4.234   6.792  1.4054  0.2380 -0.8536
  171POPC  H13B 5773   1.716   4.221   6.707  0.8462 -4.1145 -1.2296
  171POPC  H13C 5774   1.869   4.208   6.620 -1.5067 -1.7951  0.5322
  171POPC   C14 5775   1.721   4.459   6.794 -0.5261  0.2220  0.5223
  171POPC  H14A 5776   1.711   4.565   6.778  0.5464 -0.1030 -2.9930
  171POPC  H14B 5777   1.621   4.416   6.795 -0.4377 -0.0594  2.6268
  171POPC  H14C 5778   1.760   4.462   6.895 -0.7737  0.2771  0.6173
  171POPC   C15 5779   1.732   4.428   6.555 -0.8819  0.1143 -0.0283
  171POPC  H15A 5780   1.788   4.403   6.466  0.2267  4.1638 -0.7089
  171POPC  H15B 5781   1.690   4.527   6.539 -1.3633 -0.4922 -3.1698
  171POPC  H15C 5782   1.650   4.358   6.555  0.3261 -1.4019 -1.6771
  171POPC   C11 5783   2.007   4.483   6.812  0.3742 -0.1199 -0.3787
  171POPC  H11A 5784   2.117   4.496   6.810  0.3665  0.7512  1.8893
  171POPC  H11B 5785   2.005   4.386   6.866 -0.3437  1.2309  2.2132
  171POPC     P 5786   2.001   4.607   7.042  0.2459  0.1183 -0.2616
  171POPC   O13 5787   2.035   4.474   7.092 -0.2649 -0.5263 -0.0376
  171POPC   O14 5788   1.893   4.680   7.114 -0.2224  0.2627 -0.0914
  171POPC   O12 5789   1.953   4.592   6.890 -0.4309  0.3855  0.1346
  171POPC   O11 5790   2.132   4.696   7.042 -0.2529 -0.0734  0.4032
  171POPC    C1 5791   2.142   4.813   6.957 -0.4998  0.2282  0.0868
  171POPC    HA 5792   2.156   4.905   7.018 -0.5492  0.9870 -1.0145
  171POPC    HB 5793   2.048   4.830   6.899 -0.3248  0.0989 -0.2409
  171POPC    C2 5794   2.259   4.794   6.855 -0.5226 -0.3951 -0.2405
  171POPC    HS 5795   2.224   4.704   6.801  3.4080 -2.1499 -0.2260
  171POPC   O21 5796   2.391   4.766   6.918 -0.1916 -0.1261  0.1947
  171POPC   C21 5797   2.421   4.632   6.931 -0.1562  0.0487 -0.4642
  171POPC   O22 5798   2.354   4.544   6.880  0.3715 -0.1406 -0.2137
  171POPC   C22 5799   2.558   4.616   6.995 -0.2468  0.0836  0.3617
  171POPC   H2R 5800   2.595   4.512   7.002  1.7160  0.8074  1.2511
  171POPC   H2S 5801   2.544   4.660   7.095 -0.4627  1.9778 -0.4613
  171POPC    C3 5802   2.283   4.918   6.765  0.5446  0.0621  0.2112
  171POPC    HX 5803   2.316   5.001   6.830  0.4520 -0.9465  1.5973
  171POPC    HY 5804   2.183   4.955   6.731  1.1799  2.3384  0.6663
  171POPC   O31 5805   2.361   4.882   6.653 -0.0936 -0.0969  0.1017
  171POPC   C31 5806   2.478   4.949   6.637  0.5081  0.9724 -0.4851
  171POPC   O32 5807   2.524   5.038   6.710  0.1604 -0.3659 -0.1849
  171POPC   C32 5808   2.556   4.877   6.532 -0.6025  0.5721  0.0347
  171POPC   H2X 5809   2.486   4.856   6.449  0.6612  0.6138 -1.0737
  171POPC   H2Y 5810   2.584   4.781   6.580  0.2005  0.9409  0.3177
  171POPC   C23 5811   2.672   4.689   6.915 -0.1513 -0.3421 -0.1157
  171POPC   H3R 5812   2.764   4.699   6.976 -1.1034  2.1496  1.0438
  171POPC   H3S 5813   2.646   4.796   6.900 -1.1467 -0.0741  2.8550
  171POPC   C24 5814   2.712   4.628   6.784 -0.2118 -0.9139 -0.6187
  171POPC   H4R 5815   2.628   4.647   6.714 -0.9914 -0.0222  0.5418
  171POPC   H4S 5816   2.718   4.519   6.805  0.2067 -0.8464 -0.3764
  171POPC   C25 5817   2.843   4.679   6.725 -0.0900  0.2165 -0.0812
  171POPC   H5R 5818   2.913   4.712   6.805 -1.9622  1.3227  1.1998
  171POPC   H5S 5819   2.817   4.772   6.670 -1.3101  0.2619  0.5354
  171POPC   C26 5820   2.910   4.588   6.617  0.2172 -0.7464 -0.6020
  171POPC   H6R 5821   2.998   4.649   6.587  0.2855  0.6254  2.0120
  171POPC   H6S 5822   2.851   4.595   6.523  3.0441 -0.2372 -2.4532
  171POPC   C27 5823   2.956   4.445   6.658  0.2895  0.3617  0.5234
  171POPC   H7R 5824   2.878   4.384   6.708 -0.1225  0.5853  0.1603
  171POPC   H7S 5825   3.030   4.454   6.741  1.0623  1.1172 -0.2260
  171POPC   C28 5826   3.018   4.371   6.535  0.7034 -1.1205  0.1123
  171POPC   H8R 5827   3.048   4.272   6.574 -0.9160 -1.5567  0.3075
  171POPC   H8S 5828   3.107   4.418   6.487  0.6607  0.0453  1.1343
  171POPC   C29 5829   2.916   4.337   6.429  0.8367 -0.3649  0.4765
  171POPC   H91 5830   2.830   4.404   6.434  0.1074 -1.3481  1.4324
  171POPC  C210 5831   2.944   4.255   6.321 -0.9645 -0.2822  0.8935
  171POPC  H101 5832   2.866   4.225   6.249 -0.5357  1.1447 -0.1895
  171POPC  C211 5833   3.072   4.185   6.291 -0.2754  0.6796 -0.0575
  171POPC  H11R 5834   3.051   4.077   6.274 -0.8620  0.9292 -1.0234
  171POPC  H11S 5835   3.134   4.184   6.383  1.0327 -0.1687 -0.9242
  171POPC  C212 5836   3.144   4.233   6.162  0.0859 -0.3733  0.1049
  171POPC  H12R 5837   3.175   4.339   6.177  1.9423 -0.9435  0.5109
  171POPC  H12S 5838   3.078   4.233   6.072  1.0530 -0.8615 -0.6236
  171POPC  C213 5839   3.267   4.147   6.132  0.4010 -0.2005 -0.1221
  171POPC  H13R 5840   3.231   4.042   6.124  0.6304 -0.3580  0.8344
  171POPC  H13S 5841   3.339   4.155   6.216  0.5454 -0.6911 -0.1991
  171POPC  C214 5842   3.343   4.198   6.020  0.4549 -0.0936 -0.5539
  171POPC  H14R 5843   3.449   4.163   6.027  0.5779  0.3512 -0.1605
  171POPC  H14S 5844   3.344   4.309   6.028  1.2816  0.0315 -1.9314
  171POPC  C215 5845   3.279   4.158   5.884  0.2790 -0.8988  0.1985
  171POPC  H15R 5846   3.171   4.182   5.890  0.7265  1.0686  1.2578
  171POPC  H15S 5847   3.288   4.048   5.875  2.5144 -0.7864  0.5079
  171POPC  C216 5848   3.346   4.234   5.769  0.5721 -0.0122  0.8023
  171POPC  H16R 5849   3.451   4.199   5.777  0.7741 -0.3350 -2.2964
  171POPC  H16S 5850   3.328   4.341   5.796 -1.7715 -0.6278  1.8949
  171POPC  C217 5851   3.287   4.208   5.629 -0.1187 -0.6146 -0.1137
  171POPC  H17R 5852   3.179   4.229   5.610  0.2252  0.4513 -1.0079
  171POPC  H17S 5853   3.299   4.099   5.615  2.3060 -0.2738 -1.1359
  171POPC  C218 5854   3.360   4.277   5.518  0.5635 -0.3160  0.0866
  171POPC  H18R 5855   3.376   4.383   5.548 -0.0174 -0.3330  0.4632
  171POPC  H18S 5856   3.292   4.280   5.431 -0.3511 -2.4310  0.6647
  171POPC  H18T 5857   3.461   4.233   5.501  0.8142 -1.4088  3.5721
  171POPC   C33 5858   2.690   4.948   6.485  0.3868  0.7297 -0.1121
  171POPC   H3X 5859   2.766   4.964   6.565 -0.2737  0.1372  0.6559
  171POPC   H3Y 5860   2.663   5.047   6.442  0.9389  0.5984 -0.7743
  171POPC   C34 5861   2.761   4.871   6.369  0.6792 -0.8440 -0.7368
  171POPC   H4X 5862   2.696   4.874   6.279  1.8014 -1.1659 -1.5855
  171POPC   H4Y 5863   2.770   4.766   6.406  2.4608 -0.8534 -1.1215
  171POPC   C35 5864   2.893   4.932   6.322 -0.1156  0.0688  0.7503
  171POPC   H5X 5865   2.967   4.934   6.404  0.8185 -2.3472  0.0519
  171POPC   H5Y 5866   2.865   5.038   6.302 -0.4144 -0.3597 -1.3094
  171POPC   C36 5867   2.939   4.859   6.196 -0.1580  0.4009 -0.3371
  171POPC   H6X 5868   2.997   4.918   6.122 -1.1097  0.8353 -0.7599
  171POPC   H6Y 5869   2.850   4.819   6.143  0.5647 -2.7118  0.6100
  171POPC   C37 5870   3.027   4.740   6.234 -0.9090  0.1862 -0.3475
  171POPC   H7X 5871   2.978   4.650   6.278 -0.2129  0.6979  1.5695
  171POPC   H7Y 5872   3.101   4.776   6.309  1.7660 -0.9994 -2.2205
  171POPC   C38 5873   3.107   4.678   6.110 -0.0128 -0.7685 -0.5111
  171POPC   H8X 5874   3.190   4.614   6.148 -1.3379 -0.9147  2.3402
  171POPC   H8Y 5875   3.150   4.755   6.043  1.2660 -1.7044 -0.8125
  171POPC   C39 5876   3.014   4.598   6.016 -0.5155  0.4517  0.9240
  171POPC   H9X 5877   2.941   4.667   5.968 -0.8008  0.3396  1.1905
  171POPC   H9Y 5878   2.961   4.516   6.071 -1.5949  0.2843 -0.3158
  171POPC  C310 5879   3.100   4.540   5.903  0.1838  0.2833  0.5125
  171POPC  H10X 5880   3.173   4.466   5.942 -0.4212 -1.0846 -0.8482
  171POPC  H10Y 5881   3.161   4.623   5.861 -0.5296  1.2319  1.3160
  171POPC  C311 5882   3.021   4.471   5.788  0.2388 -0.4817 -0.4586
  171POPC  H11X 5883   3.090   4.431   5.711  0.8026 -1.3125  0.4524
  171POPC  H11Y 5884   2.951   4.549   5.752  0.0615 -0.7471 -0.6852
  171POPC  C312 5885   2.933   4.362   5.847  0.7798 -0.3023 -1.6895
  171POPC  H12X 5886   2.842   4.388   5.905  1.2450  1.7710 -1.8077
  171POPC  H12Y 5887   2.992   4.294   5.912 -0.4119 -1.5287 -1.8420
  171POPC  C313 5888   2.878   4.269   5.741 -0.2712 -0.6023 -0.4780
  171POPC  H13X 5889   2.958   4.218   5.683 -1.2151 -2.6418 -0.0917
  171POPC  H13Y 5890   2.817   4.327   5.669  0.0772 -1.6641 -1.6766
  171POPC  C314 5891   2.793   4.156   5.805 -0.1903 -0.0308 -0.2207
  171POPC  H14X 5892   2.697   4.193   5.848 -2.0701 -3.3110 -1.1914
  171POPC  H14Y 5893   2.849   4.100   5.883  0.8800  2.0123  0.5481
  171POPC  C315 5894   2.764   4.044   5.698 -0.0794  1.4361  0.6101
  171POPC  H15X 5895   2.713   3.961   5.751 -1.7050  0.3193 -2.4529
  171POPC  H15Y 5896   2.862   4.013   5.658 -0.6542  1.6664 -1.0442
  171POPC  C316 5897   2.668   4.077   5.591 -0.0652  0.2855  0.7810
  171POPC  H16X 5898   2.648   3.982   5.536  3.1229  0.4879 -0.9820
  171POPC  H16Y 5899   2.715   4.145   5.517 -0.0896  0.0661  0.5608
  171POPC  H16Z 5900   2.570   4.118   5.626  0.2585  1.5563  0.2512
  172POPC     N 5901   3.444   6.288   7.355  0.1174 -0.4035  0.1813
  172POPC   C12 5902   3.391   6.229   7.225  0.5223 -1.2197 -0.5974
  172POPC  H12A 5903   3.367   6.314   7.164 -1.4190 -1.0938  0.2594
  172POPC  H12B 5904   3.300   6.182   7.259  0.0836  0.1640  0.2142
  172POPC   C13 5905   3.563   6.376   7.328  0.5090 -0.4292 -0.8417
  172POPC  H13A 5906   3.539   6.460   7.265  1.0329  0.1961 -0.2283
  172POPC  H13B 5907   3.605   6.416   7.419 -1.7674  0.1596  0.0115
  172POPC  H13C 5908   3.636   6.324   7.267 -0.7819 -0.0445 -2.7978
  172POPC   C14 5909   3.341   6.371   7.428 -0.2231 -0.3937  0.3283
  172POPC  H14A 5910   3.372   6.420   7.519 -1.3946  1.0782 -0.0137
  172POPC  H14B 5911   3.305   6.450   7.363  1.0158  0.6221  0.8385
  172POPC  H14C 5912   3.262   6.310   7.470  0.3715 -2.6395 -1.6094
  172POPC   C15 5913   3.488   6.180   7.456  0.1027 -0.7234 -0.0022
  172POPC  H15A 5914   3.558   6.112   7.410  1.4046  0.7475 -0.2810
  172POPC  H15B 5915   3.414   6.110   7.489  1.5508 -3.6177 -2.4260
  172POPC  H15C 5916   3.534   6.228   7.542 -1.7107 -1.0402  1.1946
  172POPC   C11 5917   3.478   6.134   7.138  0.5474 -0.0385 -0.1235
  172POPC  H11A 5918   3.426   6.119   7.041 -0.9366  0.4971  0.5653
  172POPC  H11B 5919   3.486   6.036   7.189  0.1751 -0.1686 -0.3145
  172POPC     P 5920   3.667   6.242   6.984  0.6000  0.1256  0.0608
  172POPC   O13 5921   3.806   6.277   6.987 -0.5271  0.0291  0.1012
  172POPC   O14 5922   3.565   6.349   6.947 -0.0567  0.0544  0.4676
  172POPC   O12 5923   3.616   6.185   7.118 -0.7720 -0.2121 -0.2812
  172POPC   O11 5924   3.655   6.124   6.884  0.4574 -0.2097 -0.1704
  172POPC    C1 5925   3.718   5.997   6.914  0.3324  0.1509  0.2542
  172POPC    HA 5926   3.666   5.943   6.997 -1.7639 -0.4889 -1.3839
  172POPC    HB 5927   3.823   6.018   6.943 -0.2523 -0.1122  2.8036
  172POPC    C2 5928   3.717   5.909   6.784  0.0525 -0.0966  0.2503
  172POPC    HS 5929   3.784   5.823   6.806  1.1262  0.7598  0.3564
  172POPC   O21 5930   3.756   5.976   6.666 -0.2361  0.3338 -0.5285
  172POPC   C21 5931   3.876   6.039   6.658  0.4347 -0.1177  0.3344
  172POPC   O22 5932   3.971   6.031   6.732 -0.7802  0.2522 -0.5049
  172POPC   C22 5933   3.866   6.126   6.532  0.3734 -0.0085 -0.2985
  172POPC   H2R 5934   3.815   6.221   6.557  0.4193 -0.2998  0.9569
  172POPC   H2S 5935   3.811   6.062   6.459  2.4386 -1.9203 -0.3038
  172POPC    C3 5936   3.577   5.842   6.765 -0.1582  0.4225 -0.1462
  172POPC    HX 5937   3.516   5.933   6.747 -1.7994  0.0201  2.7669
  172POPC    HY 5938   3.543   5.802   6.863  1.6116  0.5393  0.5521
  172POPC   O31 5939   3.573   5.755   6.647  0.0899  0.3900  0.4644
  172POPC   C31 5940   3.601   5.631   6.677  1.5770 -0.2589  0.3861
  172POPC   O32 5941   3.624   5.582   6.784  0.0524 -0.1183  0.3287
  172POPC   C32 5942   3.623   5.552   6.545  1.2052  0.0066 -0.3030
  172POPC   H2X 5943   3.729   5.539   6.513  0.8721 -3.4372 -0.3038
  172POPC   H2Y 5944   3.578   5.610   6.461 -1.7795 -2.6295 -0.7174
  172POPC   C23 5945   4.007   6.156   6.478  0.1458  0.0985  1.0223
  172POPC   H3R 5946   4.073   6.067   6.466  0.3854  0.4727 -0.6805
  172POPC   H3S 5947   4.055   6.230   6.545 -0.3861  0.9891  0.4352
  172POPC   C24 5948   4.013   6.222   6.342 -0.9553  0.4437 -0.3032
  172POPC   H4R 5949   4.116   6.259   6.323 -0.3881 -1.8393 -2.1080
  172POPC   H4S 5950   3.934   6.300   6.338 -1.7209 -0.2599  0.5479
  172POPC   C25 5951   3.971   6.124   6.223 -0.0909 -1.0048  0.0519
  172POPC   H5R 5952   3.868   6.087   6.243 -0.1670 -0.2856  1.1361
  172POPC   H5S 5953   4.042   6.039   6.214  1.2223  0.0643 -0.0310
  172POPC   C26 5954   3.980   6.187   6.085  0.0773 -0.3633  0.0555
  172POPC   H6R 5955   4.079   6.230   6.061 -0.4686 -0.9302 -4.1366
  172POPC   H6S 5956   3.900   6.263   6.084  0.6670  0.2621 -0.7726
  172POPC   C27 5957   3.942   6.083   5.979 -0.1114 -0.1569 -0.1306
  172POPC   H7R 5958   3.836   6.060   6.005  0.2698 -0.3608  1.3239
  172POPC   H7S 5959   3.991   5.985   5.997  0.9566  0.7286  2.1840
  172POPC   C28 5960   3.960   6.135   5.832 -0.4423 -0.7713 -0.3950
  172POPC   H8R 5961   4.070   6.147   5.829 -0.3524 -1.3207  0.3846
  172POPC   H8S 5962   3.923   6.240   5.831 -0.3162 -0.7344 -1.2284
  172POPC   C29 5963   3.893   6.039   5.742 -0.2246  1.0881 -0.7784
  172POPC   H91 5964   3.823   5.964   5.782 -0.7606  2.0276  0.0875
  172POPC  C210 5965   3.898   6.050   5.613 -0.6423  0.6983 -0.3565
  172POPC  H101 5966   3.861   5.970   5.546 -2.2593 -0.9112  2.2870
  172POPC  C211 5967   3.971   6.155   5.537  0.8390  0.2948  0.3615
  172POPC  H11R 5968   4.063   6.100   5.510  1.6096  0.1543  3.0115
  172POPC  H11S 5969   4.002   6.244   5.596  1.3473 -1.6587  3.2192
  172POPC  C212 5970   3.916   6.205   5.404  0.3336 -0.7444  0.6340
  172POPC  H12R 5971   3.879   6.124   5.339 -2.4865  1.3317 -0.6042
  172POPC  H12S 5972   3.991   6.261   5.344 -1.7354  2.4753  0.7682
  172POPC  C213 5973   3.794   6.289   5.440  0.6106 -0.8702  0.5265
  172POPC  H13R 5974   3.826   6.371   5.507 -1.0369  0.4986 -0.3149
  172POPC  H13S 5975   3.717   6.231   5.495 -0.6021  0.6827  0.5198
  172POPC  C214 5976   3.716   6.351   5.320 -0.9580 -0.9904  0.0212
  172POPC  H14R 5977   3.615   6.386   5.351 -0.4491  1.1408 -0.5705
  172POPC  H14S 5978   3.691   6.279   5.240 -1.8669 -0.0025 -0.6067
  172POPC  C215 5979   3.792   0.020   5.246  0.0523 -0.8360  0.2468
  172POPC  H15R 5980   3.886  -0.020   5.203  0.8945  0.0294  1.2378
  172POPC  H15S 5981   3.813   0.101   5.319 -0.7154  1.0208 -1.4990
  172POPC  C216 5982   3.712   0.072   5.126  0.6514 -0.6812  0.9186
  172POPC  H16R 5983   3.622   0.121   5.169  0.3969  0.8533 -1.2059
  172POPC  H16S 5984   3.676  -0.009   5.059 -0.0769 -0.0631  0.5494
  172POPC  C217 5985   3.785   0.181   5.048 -0.0640  0.1825  0.0743
  172POPC  H17R 5986   3.708   0.220   4.977  0.2394  1.3199  0.3562
  172POPC  H17S 5987   3.865   0.135   4.986 -0.2303 -0.1519  0.1065
  172POPC  C218 5988   3.853   0.298   5.117  0.9485 -0.5652 -0.5092
  172POPC  H18R 5989   3.945   0.266   5.171  1.0868 -1.8980 -1.4962
  172POPC  H18S 5990   3.786   0.353   5.187  0.1098 -0.5377 -1.3089
  172POPC  H18T 5991   3.880   0.373   5.039 -1.3328 -0.3617 -1.1812
  172POPC   C33 5992   3.556   5.411   6.535 -0.2460 -0.2690 -0.0470
  172POPC   H3X 5993   3.447   5.429   6.522 -0.1971  0.8342  0.9226
  172POPC   H3Y 5994   3.584   5.344   6.620 -0.0163 -1.6815 -1.1972
  172POPC   C34 5995   3.615   5.338   6.413  0.6228  0.6552  0.3433
  172POPC   H4X 5996   3.588   5.230   6.420  0.5621  0.6360 -0.1679
  172POPC   H4Y 5997   3.725   5.348   6.420  0.7720 -0.1549 -0.5618
  172POPC   C35 5998   3.561   5.383   6.281  0.3700 -0.2898  0.2403
  172POPC   H5X 5999   3.580   5.491   6.266  1.9883 -0.5808  0.0068
  172POPC   H5Y 6000   3.453   5.359   6.286  0.5714 -1.4506 -0.5107
  172POPC   C36 6001   3.631   5.312   6.158 -0.1424  0.6320 -0.6940
  172POPC   H6X 6002   3.638   5.202   6.173 -2.8599  0.1885 -2.0178
  172POPC   H6Y 6003   3.735   5.351   6.156  0.0960  0.2402  1.6105
  172POPC   C37 6004   3.560   5.337   6.022  0.1108  0.5035 -0.0812
  172POPC   H7X 6005   3.540   5.445   6.002 -1.8594  0.0203 -0.8907
  172POPC   H7Y 6006   3.460   5.290   6.026  0.7373 -1.1153 -1.9088
  172POPC   C38 6007   3.637   5.272   5.903  0.4038  0.0888  0.2114
  172POPC   H8X 6008   3.684   5.177   5.938 -0.5213 -0.2144  0.6658
  172POPC   H8Y 6009   3.723   5.341   5.893 -0.3781  1.6569  3.1001
  172POPC   C39 6010   3.558   5.269   5.766 -0.0334 -0.4504 -0.9991
  172POPC   H9X 6011   3.511   5.365   5.736 -2.6148 -0.9565  1.0391
  172POPC   H9Y 6012   3.470   5.206   5.792  0.1928 -1.1999 -2.0262
  172POPC  C310 6013   3.640   5.197   5.661  0.5920 -0.4689  0.5223
  172POPC  H10X 6014   3.640   5.089   5.686  2.5553 -0.4902  0.5782
  172POPC  H10Y 6015   3.747   5.226   5.657  0.2068  0.8730 -1.6153
  172POPC  C311 6016   3.588   5.225   5.515 -0.1877 -0.1804 -0.1480
  172POPC  H11X 6017   3.571   5.332   5.489 -1.6673 -0.5434 -0.7954
  172POPC  H11Y 6018   3.488   5.177   5.517 -0.8808  1.1589  2.4836
  172POPC  C312 6019   3.687   5.162   5.415  0.2528 -0.9163  0.2454
  172POPC  H12X 6020   3.699   5.053   5.435  1.1557 -0.8315  0.1927
  172POPC  H12Y 6021   3.784   5.210   5.435 -0.9141  0.7485  2.3217
  172POPC  C313 6022   3.637   5.162   5.269  0.3497  0.0210  0.0040
  172POPC  H13X 6023   3.603   5.264   5.240  1.3802  0.5846  0.6612
  172POPC  H13Y 6024   3.553   5.091   5.258  1.4686 -1.2068 -1.0033
  172POPC  C314 6025   3.752   5.120   5.169 -0.2944 -0.3356 -0.5467
  172POPC  H14X 6026   3.803   5.034   5.216 -0.0816  0.0966  0.0268
  172POPC  H14Y 6027   3.819   5.207   5.187  1.2164 -1.4592 -0.5453
  172POPC  C315 6028   3.712   5.092   5.029 -0.4355 -0.6998 -0.0932
  172POPC  H15X 6029   3.785   5.139   4.960  0.4796  1.5838  2.2374
  172POPC  H15Y 6030   3.612   5.137   5.015 -0.7397 -0.5489  2.1192
  172POPC  C316 6031   3.717   4.943   4.999  0.5477 -0.2148  0.4527
  172POPC  H16X 6032   3.641   4.875   5.044 -0.2110  0.6566  0.5232
  172POPC  H16Y 6033   3.819   4.905   5.022  0.0713  0.0136  3.2862
  172POPC  H16Z 6034   3.716   4.931   4.889 -0.8530 -2.1351  0.5972
  173POPC     N 6035   1.725   5.880   7.263  0.2243  0.0818  0.0400
  173POPC   C12 6036   1.789   5.798   7.148 -0.2112  0.6607 -0.4201
  173POPC  H12A 6037   1.885   5.750   7.162 -1.7425 -3.4853 -2.4259
  173POPC  H12B 6038   1.824   5.866   7.073 -1.7471  0.4206 -1.3893
  173POPC   C13 6039   1.700   5.795   7.382 -0.4198 -0.5408 -0.2899
  173POPC  H13A 6040   1.786   5.745   7.423  0.5639  0.6164 -0.8777
  173POPC  H13B 6041   1.659   5.850   7.466  3.0129  0.6912  0.7281
  173POPC  H13C 6042   1.625   5.722   7.355  0.2217 -1.3238 -0.0071
  173POPC   C14 6043   1.820   5.982   7.299 -0.0789 -0.2187 -0.4446
  173POPC  H14A 6044   1.762   6.056   7.353 -2.1099 -1.2146 -1.1506
  173POPC  H14B 6045   1.904   5.952   7.360 -0.7573 -1.5817 -0.1535
  173POPC  H14C 6046   1.839   6.048   7.216 -1.1403  0.0043 -0.5279
  173POPC   C15 6047   1.596   5.941   7.214  0.1333 -0.4166 -0.0534
  173POPC  H15A 6048   1.513   5.872   7.213 -0.7932  0.6032  1.5891
  173POPC  H15B 6049   1.612   5.989   7.118 -1.9773  1.7145  0.5623
  173POPC  H15C 6050   1.568   6.021   7.281 -0.8010 -1.1629  0.4634
  173POPC   C11 6051   1.711   5.693   7.072  0.8713  0.8557  0.7925
  173POPC  H11A 6052   1.668   5.622   7.146 -0.3807  0.8681  0.1071
  173POPC  H11B 6053   1.776   5.635   7.004 -0.9022  1.3408 -1.4444
  173POPC     P 6054   1.617   5.810   6.854  0.0343 -0.0581 -0.2182
  173POPC   O13 6055   1.716   5.918   6.863  0.2707  0.1183  0.5116
  173POPC   O14 6056   1.491   5.843   6.787  0.4210 -0.1203 -0.3723
  173POPC   O12 6057   1.599   5.747   6.995 -0.2653  0.0810  0.2221
  173POPC   O11 6058   1.690   5.689   6.778  0.0376 -0.3837 -0.3852
  173POPC    C1 6059   1.630   5.559   6.768  0.2525 -0.2831  1.0488
  173POPC    HA 6060   1.529   5.576   6.727  1.1107  1.2862 -0.5736
  173POPC    HB 6061   1.615   5.506   6.865 -0.1714 -1.5530  0.3039
  173POPC    C2 6062   1.702   5.472   6.665 -0.2380  0.5389  0.3904
  173POPC    HS 6063   1.650   5.376   6.644  0.3016 -0.7698  4.2858
  173POPC   O21 6064   1.836   5.442   6.712  0.0593  0.2405  0.2796
  173POPC   C21 6065   1.841   5.334   6.789  0.0173 -0.5270 -0.8697
  173POPC   O22 6066   1.745   5.265   6.826 -0.1117  0.3852 -0.1310
  173POPC   C22 6067   1.987   5.297   6.802  0.1407 -0.4928  0.1790
  173POPC   H2R 6068   1.998   5.273   6.910 -0.2297 -2.0515 -0.1191
  173POPC   H2S 6069   2.051   5.386   6.784 -0.6247 -0.0454 -0.3941
  173POPC    C3 6070   1.708   5.544   6.525  0.0781  0.6364 -0.1112
  173POPC    HX 6071   1.758   5.639   6.553 -0.1854  0.0312  2.7233
  173POPC    HY 6072   1.602   5.549   6.492 -0.3512  0.9758  1.2769
  173POPC   O31 6073   1.798   5.477   6.427  0.1192  0.0300 -0.1002
  173POPC   C31 6074   1.734   5.412   6.336 -0.6685  0.4385  0.4067
  173POPC   O32 6075   1.614   5.396   6.323 -0.2752  0.7308  0.0119
  173POPC   C32 6076   1.846   5.373   6.236  0.3940 -0.6625  0.1339
  173POPC   H2X 6077   1.947   5.356   6.278  0.5451  0.1180  0.1040
  173POPC   H2Y 6078   1.858   5.461   6.168  0.6511 -0.7547  0.0589
  173POPC   C23 6079   2.034   5.187   6.699 -0.5569 -0.1175  0.1597
  173POPC   H3R 6080   1.967   5.101   6.716 -1.9902  0.9788  0.2202
  173POPC   H3S 6081   2.134   5.161   6.740 -1.0342 -1.4646  0.4971
  173POPC   C24 6082   2.046   5.238   6.551  0.0415  0.0357 -0.1157
  173POPC   H4R 6083   2.128   5.309   6.529  0.4546  0.2914  1.9992
  173POPC   H4S 6084   1.958   5.304   6.537 -1.0339 -0.1619  4.2743
  173POPC   C25 6085   2.080   5.127   6.453  0.2406  0.1534  0.5007
  173POPC   H5R 6086   2.166   5.067   6.491 -1.3014 -1.1230  2.1142
  173POPC   H5S 6087   2.099   5.165   6.350 -0.9392 -0.8694 -0.1096
  173POPC   C26 6088   1.963   5.026   6.445  0.2743 -0.4167 -0.2495
  173POPC   H6R 6089   1.889   5.069   6.375 -1.1886 -2.4479 -0.0258
  173POPC   H6S 6090   1.925   5.006   6.548 -0.1710  0.6869 -0.1887
  173POPC   C27 6091   2.003   4.896   6.374  0.5522 -0.1702  0.2848
  173POPC   H7R 6092   2.061   4.910   6.280  0.0374 -1.7102 -0.3078
  173POPC   H7S 6093   1.905   4.851   6.347  0.2758  1.8115 -2.3925
  173POPC   C28 6094   2.075   4.785   6.460 -0.3407 -0.2222 -0.7659
  173POPC   H8R 6095   2.003   4.759   6.541 -2.3183 -1.1209 -2.7092
  173POPC   H8S 6096   2.172   4.829   6.493  0.9572 -2.0454 -1.9968
  173POPC   C29 6097   2.096   4.657   6.391  0.0185  0.4327  0.0325
  173POPC   H91 6098   2.018   4.632   6.317 -0.3630  2.1111 -0.1757
  173POPC  C210 6099   2.192   4.561   6.402  0.2370 -0.2427  0.4950
  173POPC  H101 6100   2.188   4.465   6.350  1.6377 -1.5534  2.6494
  173POPC  C211 6101   2.319   4.585   6.485  0.1030  0.4391 -0.0621
  173POPC  H11R 6102   2.289   4.642   6.575 -1.6396 -2.1959  1.1509
  173POPC  H11S 6103   2.399   4.630   6.422  0.4126  0.9078  0.6568
  173POPC  C212 6104   2.377   4.447   6.529 -0.1728 -0.7112  0.5423
  173POPC  H12R 6105   2.303   4.404   6.599 -0.0704 -1.7657  0.0247
  173POPC  H12S 6106   2.472   4.467   6.584 -2.2343  1.4309  3.6623
  173POPC  C213 6107   2.401   4.344   6.422  0.1152  0.0221 -0.8212
  173POPC  H13R 6108   2.310   4.330   6.359 -0.5309  0.0299  0.0892
  173POPC  H13S 6109   2.424   4.258   6.488 -0.5070  1.2642  1.1287
  173POPC  C214 6110   2.517   4.389   6.330  0.0688 -0.2293 -0.3658
  173POPC  H14R 6111   2.605   4.417   6.390  0.2244 -0.8589 -0.2859
  173POPC  H14S 6112   2.482   4.472   6.265  2.9634  1.6459  0.2865
  173POPC  C215 6113   2.577   4.279   6.238 -0.2286  0.1483 -0.4492
  173POPC  H15R 6114   2.626   4.200   6.299  1.7138  0.4093 -1.5852
  173POPC  H15S 6115   2.650   4.338   6.179 -0.9587 -0.5719 -2.1312
  173POPC  C216 6116   2.476   4.210   6.147 -0.2654  0.3295  0.2624
  173POPC  H16R 6117   2.447   4.291   6.077 -0.3287 -0.2568 -0.4009
  173POPC  H16S 6118   2.384   4.194   6.207 -0.0205  1.2966  0.9174
  173POPC  C217 6119   2.527   4.070   6.094 -0.8688  0.0428 -0.9647
  173POPC  H17R 6120   2.506   3.996   6.175  0.0044 -0.7506 -1.4471
  173POPC  H17S 6121   2.636   4.076   6.077 -0.5858  4.3687  1.0441
  173POPC  C218 6122   2.476   4.016   5.958  0.2460  0.0207  0.6283
  173POPC  H18R 6123   2.516   4.081   5.877  2.0690 -2.0337 -0.1993
  173POPC  H18S 6124   2.365   4.016   5.952  0.1188 -4.1108  0.5034
  173POPC  H18T 6125   2.525   3.917   5.948  0.7452  0.2576  0.6761
  173POPC   C33 6126   1.803   5.252   6.151 -0.6795  0.2035  0.1998
  173POPC   H3X 6127   1.712   5.269   6.091  0.2938  0.6427 -1.2129
  173POPC   H3Y 6128   1.784   5.164   6.217  1.4694 -1.7865 -1.6137
  173POPC   C34 6129   1.919   5.217   6.052 -0.0863 -0.7288 -0.1467
  173POPC   H4X 6130   2.006   5.188   6.115  1.3167  0.9692 -1.2024
  173POPC   H4Y 6131   1.949   5.312   6.004 -1.0017 -0.6222 -0.5226
  173POPC   C35 6132   1.901   5.094   5.958 -0.1315 -0.2664 -0.2389
  173POPC   H5X 6133   1.826   5.121   5.881 -0.0174 -0.3769 -0.3895
  173POPC   H5Y 6134   1.866   5.003   6.012  0.7873  0.4224  1.5905
  173POPC   C36 6135   2.034   5.049   5.896 -0.3457  0.0963 -0.2660
  173POPC   H6X 6136   2.101   5.028   5.982 -1.4122 -0.7559  0.3797
  173POPC   H6Y 6137   2.074   5.143   5.852 -1.9249  1.5744  1.2813
  173POPC   C37 6138   2.000   4.944   5.786 -0.3868  0.5350  0.5993
  173POPC   H7X 6139   1.937   4.993   5.709 -0.8596 -1.5577 -0.4022
  173POPC   H7Y 6140   1.945   4.865   5.841 -2.4010  2.4991  1.5873
  173POPC   C38 6141   2.123   4.881   5.714  0.0952  0.0280 -0.1794
  173POPC   H8X 6142   2.204   4.844   5.781 -1.4873 -0.8425  1.3568
  173POPC   H8Y 6143   2.170   4.962   5.655 -1.2100  0.5201 -0.5827
  173POPC   C39 6144   2.073   4.780   5.614 -0.7238  0.8904  0.1877
  173POPC   H9X 6145   1.985   4.831   5.571 -0.3196 -1.1256 -3.4321
  173POPC   H9Y 6146   2.030   4.698   5.675  1.2549 -0.8485 -0.6542
  173POPC  C310 6147   2.186   4.729   5.518 -0.0729  0.3679  0.7639
  173POPC  H10X 6148   2.267   4.686   5.581  2.0193  0.7988 -1.4768
  173POPC  H10Y 6149   2.235   4.811   5.461 -0.6739 -0.3701 -0.8793
  173POPC  C311 6150   2.128   4.636   5.413  0.1833 -0.0371 -0.3419
  173POPC  H11X 6151   2.048   4.695   5.363 -1.1233  0.9355  2.6386
  173POPC  H11Y 6152   2.089   4.541   5.456 -0.3726  0.4140  0.1525
  173POPC  C312 6153   2.224   4.594   5.304 -0.7534 -0.2831 -0.2716
  173POPC  H12X 6154   2.167   4.509   5.261 -0.4578  0.5351 -2.3950
  173POPC  H12Y 6155   2.314   4.542   5.342 -1.1513 -0.9226 -0.1972
  173POPC  C313 6156   2.263   4.689   5.183  0.7657  0.7848  0.2581
  173POPC  H13X 6157   2.363   4.738   5.188  1.7613 -1.0861 -0.3263
  173POPC  H13Y 6158   2.183   4.766   5.178  0.2395  0.4966  2.8357
  173POPC  C314 6159   2.266   4.620   5.048 -0.2962  0.2359 -0.4461
  173POPC  H14X 6160   2.330   4.529   5.054 -0.0854  0.4478  4.2221
  173POPC  H14Y 6161   2.297   4.694   4.971 -0.0288 -0.4661 -1.0299
  173POPC  C315 6162   2.125   4.576   4.987  0.7669 -0.4170 -0.0965
  173POPC  H15X 6163   2.056   4.660   5.007  0.5533 -0.7184  0.4553
  173POPC  H15Y 6164   2.103   4.487   5.050 -0.5748  0.9887  1.4820
  173POPC  C316 6165   2.123   4.533   4.841  0.1734 -0.3860 -0.1918
  173POPC  H16X 6166   2.177   4.437   4.832  2.6519  0.8616  0.3968
  173POPC  H16Y 6167   2.170   4.619   4.790 -1.0508 -0.4261 -1.4281
  173POPC  H16Z 6168   2.020   4.522   4.800 -0.5710  0.1652  1.4016
  174POPC     N 6169   4.430   4.562   7.577 -0.8110 -0.0021 -1.0124
  174POPC   C12 6170   4.389   4.556   7.436 -0.0239 -0.2152 -0.1378
  174POPC  H12A 6171   4.318   4.475   7.427 -1.1265  0.7881 -0.7346
  174POPC  H12B 6172   4.470   4.522   7.373 -0.5647  1.2693 -1.7074
  174POPC   C13 6173   4.470   4.429   7.636 -0.0307  0.2757 -0.2784
  174POPC  H13A 6174   4.388   4.362   7.658  0.0517  0.3899  0.3818
  174POPC  H13B 6175   4.545   4.382   7.574 -0.1720 -0.8033  0.3432
  174POPC  H13C 6176   4.521   4.444   7.730 -1.7008  1.7297  0.4474
  174POPC   C14 6177   4.548   4.648   7.588 -0.7556  0.2832 -0.3091
  174POPC  H14A 6178   4.631   4.606   7.533 -1.8626 -0.6517 -1.3189
  174POPC  H14B 6179   4.522   4.741   7.540  0.2932  0.1836 -1.1046
  174POPC  H14C 6180   4.572   4.664   7.691 -1.7373 -0.7993  0.1114
  174POPC   C15 6181   4.323   4.625   7.669 -0.4529  0.8559 -0.3764
  174POPC  H15A 6182   4.358   4.621   7.771  0.7336 -0.5531 -0.8088
  174POPC  H15B 6183   4.240   4.558   7.650  0.6207 -0.8685  0.7627
  174POPC  H15C 6184   4.300   4.729   7.651  0.5937  1.2610  0.5154
  174POPC   C11 6185   4.325   4.680   7.372 -0.0118 -0.8639  0.5491
  174POPC  H11A 6186   4.226   4.708   7.416 -1.5925  0.9400 -3.5814
  174POPC  H11B 6187   4.292   4.650   7.270  0.4928 -0.1510  0.1596
  174POPC     P 6188   4.516   4.800   7.248 -0.2083  0.2240 -0.6406
  174POPC   O13 6189   4.597   4.680   7.246 -0.3377  0.4736  0.2192
  174POPC   O14 6190   4.593   4.927   7.260  0.2891 -0.0523 -0.0842
  174POPC   O12 6191   4.418   4.798   7.372  0.5154 -0.3147  0.6166
  174POPC   O11 6192   4.420   4.809   7.121  0.1885 -0.4779 -0.1798
  174POPC    C1 6193   4.310   4.901   7.110  0.4864  0.4211  0.4889
  174POPC    HA 6194   4.318   4.996   7.167  0.6164  0.2270  0.8001
  174POPC    HB 6195   4.216   4.849   7.136  1.5981 -2.6655 -1.2230
  174POPC    C2 6196   4.303   4.956   6.967 -0.4778  0.2585  0.6533
  174POPC    HS 6197   4.232   5.040   6.955  1.2924  1.7769  0.3484
  174POPC   O21 6198   4.259   4.841   6.894  0.3306 -0.3526  0.0945
  174POPC   C21 6199   4.149   4.847   6.811 -0.9619  0.0274  0.4989
  174POPC   O22 6200   4.061   4.926   6.823  0.0219  0.4733 -0.8752
  174POPC   C22 6201   4.155   4.735   6.708 -0.0285  0.0922 -0.3729
  174POPC   H2R 6202   4.253   4.683   6.708  1.0729  1.9696  1.8753
  174POPC   H2S 6203   4.147   4.781   6.608 -0.1344 -3.8124 -2.3607
  174POPC    C3 6204   4.448   4.999   6.905  0.0287 -0.3353  0.0319
  174POPC    HX 6205   4.514   4.909   6.905 -0.6834 -0.8776  1.1430
  174POPC    HY 6206   4.489   5.078   6.971  1.6496  0.5511 -1.9300
  174POPC   O31 6207   4.437   5.048   6.762 -0.0231  0.3888 -0.1503
  174POPC   C31 6208   4.547   5.023   6.689  0.2962 -0.6871  0.2966
  174POPC   O32 6209   4.648   4.964   6.722  0.7999  0.2894  0.4476
  174POPC   C32 6210   4.529   5.081   6.553  0.4916 -0.1717  0.5259
  174POPC   H2X 6211   4.612   5.148   6.523  0.4577 -1.5226 -3.1425
  174POPC   H2Y 6212   4.436   5.140   6.543  1.2242  1.1359  1.1107
  174POPC   C23 6213   4.041   4.637   6.735 -0.1522 -0.2573 -0.1329
  174POPC   H3R 6214   3.945   4.693   6.732 -0.3821 -0.6237  0.3835
  174POPC   H3S 6215   4.056   4.593   6.836 -1.2840  0.7309  0.4888
  174POPC   C24 6216   4.036   4.512   6.640  0.0940  0.3995  0.2229
  174POPC   H4R 6217   3.951   4.445   6.665  0.4852 -1.1897 -2.3196
  174POPC   H4S 6218   4.122   4.449   6.669 -0.0007  0.6160  1.0030
  174POPC   C25 6219   4.038   4.543   6.495  0.2228  0.3289 -0.0650
  174POPC   H5R 6220   4.116   4.612   6.457 -0.7054  0.1704 -2.4284
  174POPC   H5S 6221   3.941   4.596   6.477  1.0631  1.6345 -0.9056
  174POPC   C26 6222   4.041   4.410   6.421  0.1266 -0.1765 -0.9622
  174POPC   H6R 6223   3.980   4.338   6.480 -0.7744  0.1837 -1.4350
  174POPC   H6S 6224   4.141   4.361   6.425 -1.3164 -3.2939  1.7426
  174POPC   C27 6225   3.976   4.410   6.285 -0.0944  0.5197  0.5644
  174POPC   H7R 6226   4.013   4.486   6.213  1.2846  0.5571  1.2870
  174POPC   H7S 6227   3.867   4.425   6.303 -0.2811 -0.0571 -0.0838
  174POPC   C28 6228   3.986   4.268   6.215 -0.2319 -0.3104 -0.0881
  174POPC   H8R 6229   4.092   4.235   6.212 -0.9220 -2.5772 -0.7837
  174POPC   H8S 6230   3.959   4.286   6.109 -0.0173 -1.6009 -0.3671
  174POPC   C29 6231   3.898   4.155   6.266  0.2693  0.2059  0.3263
  174POPC   H91 6232   3.919   4.130   6.371 -0.1124 -1.4627  0.0339
  174POPC  C210 6233   3.801   4.095   6.202 -0.0435 -0.4490 -0.9815
  174POPC  H101 6234   3.737   4.027   6.260  1.4748 -0.7472  0.4072
  174POPC  C211 6235   3.744   4.120   6.067  0.1426  0.2949 -0.1390
  174POPC  H11R 6236   3.817   4.175   6.004  1.6867 -0.4343  0.9426
  174POPC  H11S 6237   3.646   4.169   6.086 -0.2121  0.3470 -1.9662
  174POPC  C212 6238   3.728   3.977   6.001  0.2725  1.2256 -0.7302
  174POPC  H12R 6239   3.679   3.898   6.063 -1.6046  1.1490 -2.2067
  174POPC  H12S 6240   3.831   3.945   5.973 -0.2309  0.8753 -2.3075
  174POPC  C213 6241   3.659   3.987   5.862 -0.2165  0.7786  0.6818
  174POPC  H13R 6242   3.555   4.025   5.872  0.0330  1.1176  2.1848
  174POPC  H13S 6243   3.651   3.888   5.813 -1.3237  2.0500 -1.9063
  174POPC  C214 6244   3.738   4.073   5.757 -0.4377  0.0179  0.5661
  174POPC  H14R 6245   3.844   4.039   5.768  0.1526  2.0570  1.6273
  174POPC  H14S 6246   3.727   4.182   5.774  0.4305  0.9858 -3.7825
  174POPC  C215 6247   3.692   4.051   5.606  0.4099  1.0976 -0.4033
  174POPC  H15R 6248   3.581   4.059   5.604  0.1711 -1.0440  1.0721
  174POPC  H15S 6249   3.720   3.948   5.577  2.5864  0.9759  1.8131
  174POPC  C216 6250   3.754   4.149   5.512  0.4201 -0.0311  0.0657
  174POPC  H16R 6251   3.785   4.241   5.567 -0.5612 -1.3118  2.9430
  174POPC  H16S 6252   3.682   4.179   5.432  0.9089  0.5563 -0.1643
  174POPC  C217 6253   3.876   4.105   5.441 -0.4241 -0.4050  0.1275
  174POPC  H17R 6254   3.862   4.013   5.381 -0.3591 -1.1270  1.2008
  174POPC  H17S 6255   3.954   4.097   5.519 -1.7571  0.6604  1.6287
  174POPC  C218 6256   3.907   4.211   5.330  0.4828 -0.6721 -0.1888
  174POPC  H18R 6257   3.823   4.230   5.260 -0.4478  2.3081  1.5844
  174POPC  H18S 6258   3.995   4.183   5.267  0.5396  1.8374 -1.3352
  174POPC  H18T 6259   3.928   4.310   5.374  1.7469 -0.1238 -1.9442
  174POPC   C33 6260   4.517   4.976   6.442 -0.1827 -0.3885  0.1950
  174POPC   H3X 6261   4.599   4.900   6.442  2.4247  2.2158  0.3497
  174POPC   H3Y 6262   4.506   5.047   6.357  3.3092  1.8798  1.4098
  174POPC   C34 6263   4.389   4.889   6.440  0.0403 -0.6001  0.2270
  174POPC   H4X 6264   4.303   4.958   6.440  2.2685  2.3883  0.4927
  174POPC   H4Y 6265   4.389   4.828   6.533  3.1517 -1.4064 -0.1653
  174POPC   C35 6266   4.380   4.801   6.307  0.6812 -0.3086  0.6270
  174POPC   H5X 6267   4.292   4.734   6.322  0.2512  0.6454  2.7491
  174POPC   H5Y 6268   4.470   4.737   6.294 -0.0916 -1.7721  2.1351
  174POPC   C36 6269   4.373   4.879   6.174 -0.1187 -0.0178 -0.5493
  174POPC   H6X 6270   4.458   4.950   6.167 -1.3572  1.4098 -2.0259
  174POPC   H6Y 6271   4.281   4.941   6.167 -0.0321  0.0721 -0.9216
  174POPC   C37 6272   4.393   4.792   6.051  0.6528  0.0707 -0.4706
  174POPC   H7X 6273   4.485   4.731   6.056 -1.0907 -2.6141  2.3410
  174POPC   H7Y 6274   4.403   4.861   5.965  0.0564 -0.7285 -1.2006
  174POPC   C38 6275   4.275   4.699   6.024 -0.5162  0.5021  0.1226
  174POPC   H8X 6276   4.192   4.764   5.990  0.8309  0.2965 -4.1448
  174POPC   H8Y 6277   4.229   4.654   6.115 -1.7091  4.7465  1.8356
  174POPC   C39 6278   4.313   4.601   5.916  0.2935  0.4191 -0.7222
  174POPC   H9X 6279   4.402   4.543   5.949  0.1022  0.1700 -0.6363
  174POPC   H9Y 6280   4.341   4.658   5.825  2.6721 -2.7306 -2.1576
  174POPC  C310 6281   4.196   4.515   5.883  0.4619 -0.3774  0.0619
  174POPC  H10X 6282   4.113   4.581   5.851  1.6523  0.8959 -0.5023
  174POPC  H10Y 6283   4.166   4.467   5.979  0.5502 -0.0228  0.2666
  174POPC  C311 6284   4.245   4.407   5.774 -0.6497  0.5336  0.3421
  174POPC  H11X 6285   4.352   4.394   5.798 -0.1805 -0.2723 -1.9662
  174POPC  H11Y 6286   4.244   4.454   5.674 -0.9588  0.1295  0.1524
  174POPC  C312 6287   4.175   4.269   5.787 -0.4237  0.0364 -0.1606
  174POPC  H12X 6288   4.078   4.292   5.737 -0.7228 -0.8678 -0.0145
  174POPC  H12Y 6289   4.155   4.236   5.891 -1.1488 -2.0234 -0.9051
  174POPC  C313 6290   4.238   4.153   5.704 -0.2050 -0.5509 -0.2417
  174POPC  H13X 6291   4.164   4.071   5.719  1.8421 -2.3198  0.7450
  174POPC  H13Y 6292   4.336   4.121   5.747  0.5631  1.1653 -0.6580
  174POPC  C314 6293   4.242   4.174   5.553 -0.0392 -0.2895  0.5136
  174POPC  H14X 6294   4.179   4.264   5.532 -1.0168 -1.1001 -0.0840
  174POPC  H14Y 6295   4.188   4.090   5.505  0.4414 -0.2545 -0.1039
  174POPC  C315 6296   4.386   4.192   5.501  0.9620 -0.2578 -0.4119
  174POPC  H15X 6297   4.442   4.104   5.542 -0.1397  0.0932  2.0715
  174POPC  H15Y 6298   4.427   4.289   5.536 -1.1819  0.9017 -0.9570
  174POPC  C316 6299   4.395   4.178   5.350  0.0053  0.5051 -0.2193
  174POPC  H16X 6300   4.320   4.108   5.306 -1.8023  2.5342 -0.5644
  174POPC  H16Y 6301   4.496   4.143   5.319 -1.2819 -1.1148 -3.0205
  174POPC  H16Z 6302   4.374   4.276   5.301  1.5221  0.8783 -0.1507
  175POPC     N 6303   0.986   1.220   6.210 -0.6578 -0.4280 -0.4583
  175POPC   C12 6304   1.055   1.229   6.338 -0.7698 -0.6100  0.1366
  175POPC  H12A 6305   1.136   1.299   6.319 -0.1937 -1.6203 -1.2883
  175POPC  H12B 6306   1.105   1.136   6.360 -0.6027 -0.1921  1.7146
  175POPC   C13 6307   0.886   1.111   6.206  0.3083 -0.6283 -0.3675
  175POPC  H13A 6308   0.798   1.145   6.259 -1.1438 -0.8730 -2.4745
  175POPC  H13B 6309   0.851   1.092   6.106 -0.2567  1.6419 -0.6727
  175POPC  H13C 6310   0.925   1.021   6.251 -1.8189 -0.5644  1.7889
  175POPC   C14 6311   0.927   1.360   6.183 -0.5298  0.4518 -0.1744
  175POPC  H14A 6312   0.837   1.376   6.241 -0.3576 -1.6626  0.7878
  175POPC  H14B 6313   1.006   1.434   6.184  1.4947 -1.5838  0.5611
  175POPC  H14C 6314   0.904   1.353   6.078 -0.3270  1.3180 -0.2818
  175POPC   C15 6315   1.082   1.187   6.104 -0.3876  0.5679  0.2778
  175POPC  H15A 6316   1.165   1.256   6.094  0.0066  0.0419 -0.1323
  175POPC  H15B 6317   1.045   1.188   6.003  1.9465 -2.8144 -0.7722
  175POPC  H15C 6318   1.125   1.090   6.125 -0.1786  0.3522 -1.0985
  175POPC   C11 6319   0.973   1.270   6.458 -0.1649 -0.4227 -0.6856
  175POPC  H11A 6320   0.934   1.372   6.438  0.5337 -0.2145 -1.0424
  175POPC  H11B 6321   1.038   1.274   6.549 -0.5117 -0.2351 -0.4450
  175POPC     P 6322   0.736   1.200   6.553 -0.4133  0.0382  0.2478
  175POPC   O13 6323   0.749   1.296   6.662 -0.3581  0.2854 -0.1402
  175POPC   O14 6324   0.667   1.071   6.574 -0.5904 -0.0364  0.1542
  175POPC   O12 6325   0.882   1.164   6.503  0.1718 -0.7386  0.0892
  175POPC   O11 6326   0.676   1.266   6.423  0.2425  0.1216 -0.3782
  175POPC    C1 6327   0.533   1.289   6.415  0.6411 -0.4378  0.4477
  175POPC    HA 6328   0.499   1.376   6.476 -0.9701  0.1560 -1.2300
  175POPC    HB 6329   0.474   1.199   6.441 -0.0539 -0.1815 -0.2133
  175POPC    C2 6330   0.491   1.339   6.277  0.7594 -0.3015  0.1038
  175POPC    HS 6331   0.381   1.356   6.280  0.9522  1.1185  3.2126
  175POPC   O21 6332   0.510   1.246   6.170 -0.2900  0.4535 -0.2394
  175POPC   C21 6333   0.435   1.133   6.175 -0.6529 -0.1421  0.5164
  175POPC   O22 6334   0.347   1.115   6.257 -0.3800 -0.0296  0.4009
  175POPC   C22 6335   0.467   1.033   6.065 -0.2450 -0.4201  0.0364
  175POPC   H2R 6336   0.388   0.956   6.046 -1.6120  1.2517 -1.4739
  175POPC   H2S 6337   0.560   0.986   6.104 -0.0936  0.5256  0.8452
  175POPC    C3 6338   0.551   1.477   6.240 -0.5425  0.5757 -0.4795
  175POPC    HX 6339   0.661   1.460   6.244 -0.7528 -0.6103  2.8470
  175POPC    HY 6340   0.533   1.547   6.324  2.1006 -2.6081  3.0626
  175POPC   O31 6341   0.501   1.525   6.112  0.2826 -0.2286  0.1252
  175POPC   C31 6342   0.578   1.520   6.006 -0.2667  1.2349  0.4618
  175POPC   O32 6343   0.696   1.489   6.009 -0.8096  0.3616 -0.2624
  175POPC   C32 6344   0.502   1.573   5.884  0.2025 -0.6037  0.0006
  175POPC   H2X 6345   0.501   1.684   5.885 -4.1125 -0.4659 -0.4294
  175POPC   H2Y 6346   0.397   1.537   5.893 -0.4634  0.4052 -2.7754
  175POPC   C23 6347   0.492   1.103   5.926  0.5427 -0.6114 -0.3396
  175POPC   H3R 6348   0.526   1.024   5.856  2.3545  0.6766 -0.9851
  175POPC   H3S 6349   0.586   1.161   5.940 -0.5894  0.7880  2.1036
  175POPC   C24 6350   0.373   1.184   5.884  0.7566 -0.3623 -0.1505
  175POPC   H4R 6351   0.368   1.280   5.940  1.7969 -1.4919  1.9567
  175POPC   H4S 6352   0.284   1.121   5.904  0.3270  0.8003  1.8160
  175POPC   C25 6353   0.373   1.219   5.735 -0.1833 -0.6946 -0.9013
  175POPC   H5R 6354   0.464   1.279   5.713 -0.6024 -0.2565 -1.4820
  175POPC   H5S 6355   0.286   1.282   5.708 -1.2562 -2.7240 -2.5384
  175POPC   C26 6356   0.379   1.093   5.646 -0.1849  0.3097 -0.6321
  175POPC   H6R 6357   0.310   1.011   5.675 -1.0532  1.1982 -0.0868
  175POPC   H6S 6358   0.480   1.047   5.638 -0.3710 -0.0644 -0.8647
  175POPC   C27 6359   0.330   1.125   5.504  0.4286  0.3144  0.1297
  175POPC   H7R 6360   0.394   1.207   5.466  1.3256 -0.1454  0.6045
  175POPC   H7S 6361   0.223   1.153   5.511  0.1730 -0.5825  0.0020
  175POPC   C28 6362   0.334   1.003   5.413 -0.2297 -0.0804  0.1660
  175POPC   H8R 6363   0.283   0.919   5.464  0.3590 -1.1225 -0.9227
  175POPC   H8S 6364   0.441   0.988   5.385 -0.3288  2.8259 -2.2793
  175POPC   C29 6365   0.259   1.031   5.281  0.1637  0.0049 -0.4651
  175POPC   H91 6366   0.153   1.056   5.291  0.2332 -0.4620  2.7851
  175POPC  C210 6367   0.312   1.054   5.157  1.0711  0.0772  0.1401
  175POPC  H101 6368   0.238   1.063   5.076  0.6445 -2.4066  0.1507
  175POPC  C211 6369   0.456   1.036   5.119  0.7097 -0.1455  0.5483
  175POPC  H11R 6370   0.524   1.072   5.199 -0.6239  1.6085  0.9514
  175POPC  H11S 6371   0.473   1.114   5.041  0.2260  1.2493  1.7919
  175POPC  C212 6372   0.492   0.908   5.050  0.3623 -0.7558  0.0659
  175POPC  H12R 6373   0.479   0.825   5.123  0.7972 -1.5973 -0.7878
  175POPC  H12S 6374   0.596   0.915   5.012  0.4304 -0.2850  0.3355
  175POPC  C213 6375   0.399   0.875   4.923  0.7460  0.2583 -0.3453
  175POPC  H13R 6376   0.438   0.944   4.845  2.7844 -0.2991  0.1286
  175POPC  H13S 6377   0.290   0.884   4.944  0.0914  0.0956 -3.2131
  175POPC  C214 6378   0.414   0.733   4.870  0.1335  0.5512  0.7208
  175POPC  H14R 6379   0.381   0.664   4.950 -0.3286 -2.5861 -1.9414
  175POPC  H14S 6380   0.515   0.705   4.833 -0.4922 -0.3103 -0.4029
  175POPC  C215 6381   0.328   0.706   4.749  0.8962 -0.8077  0.3245
  175POPC  H15R 6382   0.330   0.795   4.682 -0.4053 -1.9187 -1.2683
  175POPC  H15S 6383   0.226   0.686   4.787 -0.0701  0.0143 -1.6493
  175POPC  C216 6384   0.355   0.581   4.675 -0.1634  0.5045  0.2320
  175POPC  H16R 6385   0.394   0.501   4.741 -0.2702 -0.8171 -1.2413
  175POPC  H16S 6386   0.452   0.606   4.625 -0.2245  0.4359  0.0784
  175POPC  C217 6387   0.265   0.528   4.563 -0.8739 -0.2354 -0.3184
  175POPC  H17R 6388   0.333   0.466   4.500 -2.3210 -1.2804 -0.9189
  175POPC  H17S 6389   0.237   0.608   4.491  0.9805 -0.9790 -1.9521
  175POPC  C218 6390   0.138   0.471   4.611  0.0725  0.0584 -0.0902
  175POPC  H18R 6391   0.066   0.547   4.647 -1.3996 -1.8281  1.2027
  175POPC  H18S 6392   0.164   0.405   4.697 -0.7305 -1.1635 -0.7490
  175POPC  H18T 6393   0.080   0.410   4.538  2.0732  0.9311 -2.5561
  175POPC   C33 6394   0.577   1.525   5.753  0.0268 -0.3451  0.1159
  175POPC   H3X 6395   0.594   1.417   5.769 -1.9585 -0.6272  0.6156
  175POPC   H3Y 6396   0.669   1.588   5.752  1.2358 -1.8666  3.0958
  175POPC   C34 6397   0.490   1.549   5.628  0.5427 -0.0348 -0.2289
  175POPC   H4X 6398   0.493   1.658   5.607  2.9667  0.0395  0.2465
  175POPC   H4Y 6399   0.390   1.514   5.664  0.1058  0.1203 -1.2492
  175POPC   C35 6400   0.535   1.474   5.508  0.4018 -0.3116  0.2798
  175POPC   H5X 6401   0.520   1.365   5.527  2.2832 -1.1727 -2.4554
  175POPC   H5Y 6402   0.644   1.491   5.499  0.5115 -1.8947 -3.9220
  175POPC   C36 6403   0.473   1.530   5.381 -0.3234 -0.0745  0.6902
  175POPC   H6X 6404   0.511   1.470   5.295 -0.1835 -0.9742  1.3639
  175POPC   H6Y 6405   0.499   1.637   5.364 -0.6393  0.0309  0.8646
  175POPC   C37 6406   0.325   1.513   5.375  1.0574  0.9824  0.3414
  175POPC   H7X 6407   0.272   1.591   5.433 -0.1264 -0.1124  0.8052
  175POPC   H7Y 6408   0.304   1.412   5.418 -0.7219  1.0370 -0.3199
  175POPC   C38 6409   0.272   1.512   5.228  0.4404 -0.2683 -0.0663
  175POPC   H8X 6410   0.343   1.444   5.175 -2.9708 -2.5571 -2.0977
  175POPC   H8Y 6411   0.267   1.609   5.174 -0.5505 -0.3909 -0.2115
  175POPC   C39 6412   0.129   1.460   5.220 -0.0412  0.2286 -0.0211
  175POPC   H9X 6413   0.071   1.532   5.281  3.1381  1.2954  1.9816
  175POPC   H9Y 6414   0.114   1.360   5.264 -0.3078  0.5931  0.7312
  175POPC  C310 6415   0.075   1.460   5.074  0.4376  0.2627  0.2874
  175POPC  H10X 6416   0.126   1.544   5.021 -1.2903  0.2339 -1.5281
  175POPC  H10Y 6417  -0.034   1.478   5.067  0.5509  0.3179 -2.4490
  175POPC  C311 6418   0.109   1.338   4.999 -0.5409  0.0451  0.1071
  175POPC  H11X 6419   0.094   1.245   5.058  1.7393  0.0756  0.8559
  175POPC  H11Y 6420   0.220   1.342   4.990 -0.2251 -4.2255  0.0986
  175POPC  C312 6421   0.081   1.325   4.848  0.0624 -0.5507 -0.8560
  175POPC  H12X 6422   0.136   1.410   4.803 -0.3742  0.0791 -0.2332
  175POPC  H12Y 6423  -0.026   1.344   4.826  0.1586 -0.0751 -0.9126
  175POPC  C313 6424   0.129   1.194   4.800  0.4234 -0.4121 -0.4930
  175POPC  H13X 6425   0.096   1.119   4.875 -1.4040  0.3573 -0.4702
  175POPC  H13Y 6426   0.239   1.194   4.786  0.5910  0.9216  0.6102
  175POPC  C314 6427   0.063   1.144   4.669  0.5992  0.0961 -0.5605
  175POPC  H14X 6428   0.070   1.224   4.593  2.2202 -0.2763 -0.8414
  175POPC  H14Y 6429  -0.042   1.127   4.701  2.2564 -3.7091  4.0271
  175POPC  C315 6430   0.127   1.004   4.626  0.1519  0.0279 -0.1480
  175POPC  H15X 6431   0.137   0.936   4.714  2.9100  0.4225 -0.0466
  175POPC  H15Y 6432   0.235   1.027   4.610 -0.0217  2.4036  1.5482
  175POPC  C316 6433   0.048   0.934   4.517  0.2836 -0.4476 -0.8856
  175POPC  H16X 6434  -0.061   0.931   4.540  0.3878  1.6967  0.2153
  175POPC  H16Y 6435   0.082   0.829   4.515  0.9776 -0.2206 -1.1455
  175POPC  H16Z 6436   0.069   0.983   4.419  2.2395  0.8162  0.0842
  176POPC     N 6437   4.817   0.783   6.691 -0.5284 -0.4128 -0.3567
  176POPC   C12 6438   4.883   0.910   6.637  0.0264 -0.3823 -0.2135
  176POPC  H12A 6439   4.807   0.961   6.580 -0.8239 -1.6739 -0.2791
  176POPC  H12B 6440   4.958   0.876   6.566  0.4368 -0.1096  0.0839
  176POPC   C13 6441   4.698   0.817   6.770  0.3087 -0.5755  0.0262
  176POPC  H13A 6442   4.721   0.876   6.858 -1.7672  3.3220 -1.7640
  176POPC  H13B 6443   4.628   0.880   6.716  2.5161  0.6868 -1.5496
  176POPC  H13C 6444   4.635   0.733   6.794 -0.8471  0.5115  0.9486
  176POPC   C14 6445   4.780   0.692   6.580 -0.0540 -0.0481 -0.1716
  176POPC  H14A 6446   4.709   0.743   6.516  0.7170  1.6220  0.2522
  176POPC  H14B 6447   4.851   0.669   6.503  0.3207 -0.2327  0.2276
  176POPC  H14C 6448   4.744   0.599   6.621  2.8816 -1.0066  0.4232
  176POPC   C15 6449   4.901   0.700   6.780 -0.0449  0.5244  0.0807
  176POPC  H15A 6450   4.988   0.660   6.730 -0.3778  1.0700 -0.9514
  176POPC  H15B 6451   4.845   0.615   6.817  1.6266 -0.0512  1.4666
  176POPC  H15C 6452   4.929   0.760   6.866  1.3692  1.2662 -0.8620
  176POPC   C11 6453   4.958   0.997   6.739  0.1590  0.3054 -0.3820
  176POPC  H11A 6454   4.903   1.008   6.835  1.5080 -1.1289  0.5979
  176POPC  H11B 6455   4.979   1.096   6.694  0.1431  0.4816 -0.0047
  176POPC     P 6456   5.184   1.010   6.856  0.0870  0.1584  0.5874
  176POPC   O13 6457   5.302   0.921   6.845 -0.1862 -0.5068  0.5793
  176POPC   O14 6458   5.127   1.046   6.991  0.1219  0.2433  0.2660
  176POPC   O12 6459   5.081   0.933   6.777 -0.0765  0.1807  0.1707
  176POPC   O11 6460   5.204   1.134   6.765  0.2139  0.0880 -0.6529
  176POPC    C1 6461   5.289   1.136   6.647 -0.1257  0.1274  0.0373
  176POPC    HA 6462   5.268   1.038   6.598 -2.9682  0.5620  0.1878
  176POPC    HB 6463   5.396   1.132   6.675 -0.6324 -1.9388  1.9584
  176POPC    C2 6464   5.243   1.237   6.543  0.5684 -0.0450 -0.2370
  176POPC    HS 6465   5.143   1.278   6.568  0.6805  0.8400 -1.1942
  176POPC   O21 6466   5.252   1.172   6.414  0.0651 -0.3217  0.7847
  176POPC   C21 6467   5.147   1.205   6.332 -0.1093 -0.2206  0.3495
  176POPC   O22 6468   5.052   1.275   6.368 -0.1082  0.1110 -0.3674
  176POPC   C22 6469   5.162   1.145   6.187 -0.5180 -0.2264  0.4316
  176POPC   H2R 6470   5.180   1.035   6.191 -0.1722 -0.2053 -0.4501
  176POPC   H2S 6471   5.248   1.205   6.150 -0.8930  0.5149  0.7503
  176POPC    C3 6472   5.327   1.367   6.547 -0.4711  0.0029  0.2909
  176POPC    HX 6473   5.437   1.352   6.547 -0.5442 -0.6278  1.5307
  176POPC    HY 6474   5.290   1.418   6.638 -1.3931 -0.6688  0.2952
  176POPC   O31 6475   5.294   1.456   6.438 -0.1548  0.6469  0.9868
  176POPC   C31 6476   5.336   1.582   6.456  0.3125 -0.6257 -0.0713
  176POPC   O32 6477   5.390   1.616   6.566 -0.2710 -0.3313  0.3059
  176POPC   C32 6478   5.299   1.664   6.333 -0.6753  0.7689 -0.1312
  176POPC   H2X 6479   5.354   1.761   6.334  1.7611 -0.3322 -4.5202
  176POPC   H2Y 6480   5.192   1.688   6.314 -1.1377 -1.2200 -0.1897
  176POPC   C23 6481   5.042   1.178   6.094  0.5617 -0.0360 -0.2234
  176POPC   H3R 6482   5.029   1.286   6.070 -2.9311 -0.4696 -0.7970
  176POPC   H3S 6483   4.942   1.158   6.137  0.4665  0.4713 -0.1973
  176POPC   C24 6484   5.047   1.108   5.960  0.1073  0.5010  0.3250
  176POPC   H4R 6485   5.040   0.999   5.982 -1.2093  0.4389 -0.3364
  176POPC   H4S 6486   5.145   1.125   5.909  0.4269  1.5171  1.2467
  176POPC   C25 6487   4.936   1.144   5.858  0.8444 -1.0067  0.2424
  176POPC   H5R 6488   4.938   1.255   5.852 -0.8224 -0.8509  1.7344
  176POPC   H5S 6489   4.839   1.110   5.898 -0.8006  1.8012 -1.0407
  176POPC   C26 6490   4.962   1.073   5.723 -0.2134  0.0701  0.1544
  176POPC   H6R 6491   4.976   0.963   5.736  1.2884  0.2100 -0.1261
  176POPC   H6S 6492   5.050   1.119   5.674  1.2291 -1.2857  1.3395
  176POPC   C27 6493   4.850   1.091   5.619  0.4238 -0.9979 -0.1554
  176POPC   H7R 6494   4.837   1.196   5.584  0.8501 -0.5229  1.0666
  176POPC   H7S 6495   4.760   1.075   5.682  0.7355 -0.6326  0.3854
  176POPC   C28 6496   4.851   0.994   5.506  0.5753 -1.1221  0.0124
  176POPC   H8R 6497   4.884   0.894   5.543  1.9836 -0.9939 -0.8206
  176POPC   H8S 6498   4.925   1.025   5.429  0.1934 -1.6196 -0.5692
  176POPC   C29 6499   4.709   0.984   5.448 -0.0473 -0.0642 -0.1219
  176POPC   H91 6500   4.634   1.049   5.495  1.7189  1.8195  0.2178
  176POPC  C210 6501   4.691   0.920   5.328  0.0396 -0.2823 -0.1401
  176POPC  H101 6502   4.591   0.927   5.282  0.6710 -1.0927 -1.7158
  176POPC  C211 6503   4.780   0.837   5.244 -0.5903  0.4770 -0.0612
  176POPC  H11R 6504   4.878   0.811   5.290 -2.0951 -3.9203  1.1206
  176POPC  H11S 6505   4.793   0.885   5.145 -0.5002  1.1458  0.2707
  176POPC  C212 6506   4.710   0.697   5.232 -0.6922 -0.8121 -0.2214
  176POPC  H12R 6507   4.758   0.645   5.147  2.5422 -0.1818  1.0765
  176POPC  H12S 6508   4.601   0.707   5.211 -0.7918  2.4933  1.2392
  176POPC  C213 6509   4.727   0.603   5.356  0.1443  0.0618 -0.5506
  176POPC  H13R 6510   4.715   0.659   5.451  0.0060 -0.3944 -0.3022
  176POPC  H13S 6511   4.831   0.565   5.362  0.1344  0.1716  0.5731
  176POPC  C214 6512   4.643   0.477   5.354  0.0031 -0.7921 -0.0394
  176POPC  H14R 6513   4.546   0.500   5.304 -0.6624 -2.3123  0.4775
  176POPC  H14S 6514   4.627   0.463   5.463 -2.4124 -1.6960 -0.4352
  176POPC  C215 6515   4.712   0.360   5.289 -0.7777 -0.0990  0.3539
  176POPC  H15R 6516   4.810   0.357   5.341 -1.2802  3.0901  1.7248
  176POPC  H15S 6517   4.743   0.361   5.182 -1.1065 -2.0203  0.2163
  176POPC  C216 6518   4.642   0.225   5.312 -0.6736 -0.0911  0.0385
  176POPC  H16R 6519   4.535   0.226   5.282 -0.9526  0.1722  1.0200
  176POPC  H16S 6520   4.621   0.207   5.420  1.5191  1.7190  0.8396
  176POPC  C217 6521   4.698   0.104   5.229  0.0131  0.1893  0.2823
  176POPC  H17R 6522   4.721   0.128   5.123  0.8588 -4.3599 -0.7791
  176POPC  H17S 6523   4.615   0.031   5.218 -0.4228  0.2337  2.7166
  176POPC  C218 6524   4.818   0.025   5.287 -0.0880 -0.4824 -0.2199
  176POPC  H18R 6525   4.864  -0.054   5.223 -1.1327 -0.8206 -0.5825
  176POPC  H18S 6526   4.783  -0.021   5.381  1.5892  0.4688  0.9192
  176POPC  H18T 6527   4.909   0.082   5.312  0.3983 -1.1325 -0.4689
  176POPC   C33 6528   5.363   1.613   6.195 -0.0475  0.8366  0.6165
  176POPC   H3X 6529   5.452   1.548   6.210 -0.3517 -0.2640 -1.8804
  176POPC   H3Y 6530   5.390   1.697   6.127  0.5502  0.0692 -0.1170
  176POPC   C34 6531   5.265   1.519   6.121 -0.3157 -0.2370 -0.3165
  176POPC   H4X 6532   5.162   1.559   6.106 -0.3263 -0.3677 -0.5990
  176POPC   H4Y 6533   5.256   1.426   6.181 -1.1671 -0.7293 -1.1792
  176POPC   C35 6534   5.325   1.470   5.986 -0.4091  0.0268  0.3097
  176POPC   H5X 6535   5.380   1.374   5.999  0.3925  0.1835 -1.7016
  176POPC   H5Y 6536   5.402   1.544   5.957 -0.1121 -0.6173 -0.5820
  176POPC   C36 6537   5.226   1.461   5.866  0.9228 -0.0749 -0.3481
  176POPC   H6X 6538   5.167   1.554   5.857  2.2802  1.0706  1.8170
  176POPC   H6Y 6539   5.149   1.384   5.888  0.9564  0.3339  1.3518
  176POPC   C37 6540   5.294   1.427   5.729  0.8581 -0.2422 -0.2274
  176POPC   H7X 6541   5.351   1.333   5.717 -2.1747 -2.2422 -0.2263
  176POPC   H7Y 6542   5.353   1.516   5.699 -0.3317  0.9231  0.7408
  176POPC   C38 6543   5.174   1.391   5.634  0.4377 -0.1041 -0.6059
  176POPC   H8X 6544   5.103   1.476   5.639  0.8446  0.1864  0.5194
  176POPC   H8Y 6545   5.119   1.315   5.692  0.7629  1.5429  2.0067
  176POPC   C39 6546   5.214   1.364   5.483 -0.1929  0.0202  0.4432
  176POPC   H9X 6547   5.322   1.370   5.457 -0.2241  0.0861  0.3246
  176POPC   H9Y 6548   5.176   1.441   5.411  0.9691 -1.9264 -2.4378
  176POPC  C310 6549   5.163   1.234   5.419  0.4482 -0.0829  0.1035
  176POPC  H10X 6550   5.054   1.224   5.437  0.5508 -1.6213  0.0228
  176POPC  H10Y 6551   5.206   1.145   5.471  0.1599  0.5605  1.4818
  176POPC  C311 6552   5.185   1.226   5.267 -0.0593  0.2564 -0.1094
  176POPC  H11X 6553   5.177   1.117   5.246  1.5005 -0.0160  0.5806
  176POPC  H11Y 6554   5.285   1.268   5.244  0.4723 -1.0588 -0.2614
  176POPC  C312 6555   5.089   1.307   5.180 -0.6780  0.3375  0.3312
  176POPC  H12X 6556   5.115   1.412   5.202  1.0222  0.0978 -0.3438
  176POPC  H12Y 6557   4.990   1.288   5.226  0.6492 -0.4005  3.1349
  176POPC  C313 6558   5.108   1.281   5.024  0.5209  1.3492 -0.5044
  176POPC  H13X 6559   5.103   1.174   4.993  0.0160  0.7675  1.4895
  176POPC  H13Y 6560   5.214   1.305   5.001  0.1662  1.7947 -1.7770
  176POPC  C314 6561   5.012   1.352   4.927 -0.1904  0.1764  1.1847
  176POPC  H14X 6562   5.050   1.365   4.823 -2.0581  1.7449  0.6284
  176POPC  H14Y 6563   5.014   1.460   4.955  0.6333  0.6150 -0.4078
  176POPC  C315 6564   4.871   1.297   4.914 -0.3771  0.3356 -0.1961
  176POPC  H15X 6565   4.835   1.298   5.019 -0.0576  0.3435 -0.0868
  176POPC  H15Y 6566   4.886   1.192   4.881 -0.0415  0.6624 -1.1070
  176POPC  C316 6567   4.781   1.382   4.826  0.3094 -0.7307  0.5011
  176POPC  H16X 6568   4.720   1.313   4.764  0.1286  0.0172 -0.1806
  176POPC  H16Y 6569   4.842   1.453   4.766 -1.4675  0.1639 -0.3270
  176POPC  H16Z 6570   4.709   1.444   4.885 -2.2443 -1.9142 -1.1534
  177POPC     N 6571   4.942   4.828   7.043  0.1249 -0.2145  0.4274
  177POPC   C12 6572   5.034   4.827   6.921 -0.6522 -0.2075 -0.1882
  177POPC  H12A 6573   5.110   4.753   6.939  1.7986  1.8190 -1.5079
  177POPC  H12B 6574   5.083   4.923   6.908  0.5306 -0.7237  0.3380
  177POPC   C13 6575   5.015   4.891   7.166  0.3003  0.2266 -0.4435
  177POPC  H13A 6576   4.951   4.916   7.248 -0.7847 -1.2447 -0.8056
  177POPC  H13B 6577   5.084   4.819   7.208  1.4946  1.1786 -0.6834
  177POPC  H13C 6578   5.068   4.982   7.142  0.4604 -0.0029 -0.9965
  177POPC   C14 6579   4.832   4.925   7.005  0.0579 -1.3517 -0.5841
  177POPC  H14A 6580   4.773   4.881   6.926  1.0237 -1.4842 -1.2467
  177POPC  H14B 6581   4.767   4.940   7.090  0.2854  1.9253 -0.8520
  177POPC  H14C 6582   4.870   5.024   6.986 -0.3050 -1.0918  0.0366
  177POPC   C15 6583   4.882   4.695   7.080  0.6545  0.4374  0.7998
  177POPC  H15A 6584   4.962   4.628   7.107 -1.0603 -1.1977  2.0973
  177POPC  H15B 6585   4.832   4.648   6.996  0.3438  0.3916  1.0079
  177POPC  H15C 6586   4.806   4.700   7.157 -1.4095 -2.9860 -0.7315
  177POPC   C11 6587   4.975   4.793   6.780  0.1408 -0.2342 -0.4996
  177POPC  H11A 6588   5.049   4.820   6.702 -1.1406  2.7639 -0.8462
  177POPC  H11B 6589   4.891   4.866   6.775  0.4073  0.2018  0.8839
  177POPC     P 6590   5.039   4.548   6.729 -0.4292  0.2987  0.3396
  177POPC   O13 6591   4.977   4.411   6.739 -0.2339 -0.3157  0.0670
  177POPC   O14 6592   5.157   4.572   6.810  0.1343 -0.0890 -0.1468
  177POPC   O12 6593   4.934   4.655   6.772 -0.1051  0.1674  0.2544
  177POPC   O11 6594   5.082   4.589   6.572 -0.4444 -0.3317 -1.1475
  177POPC    C1 6595   4.973   4.613   6.479 -0.4154 -0.7700  0.5625
  177POPC    HA 6596   5.020   4.661   6.391 -1.7109  0.0806  0.3085
  177POPC    HB 6597   4.893   4.677   6.521 -0.7363 -0.8566  0.0776
  177POPC    C2 6598   4.918   4.482   6.410  0.3319  0.1544 -0.2689
  177POPC    HS 6599   4.882   4.507   6.308  0.9635  1.1474 -0.2607
  177POPC   O21 6600   4.803   4.428   6.483 -0.0611 -0.8989 -0.0842
  177POPC   C21 6601   4.694   4.498   6.483 -0.1911 -0.1075  0.5550
  177POPC   O22 6602   4.681   4.611   6.426  0.0827  0.1491  0.7596
  177POPC   C22 6603   4.584   4.421   6.561  0.2638 -0.5704 -0.1545
  177POPC   H2R 6604   4.519   4.506   6.590 -2.0877 -1.9176 -1.1600
  177POPC   H2S 6605   4.632   4.387   6.656 -0.9266  0.1274  0.7197
  177POPC    C3 6606   5.019   4.368   6.390 -0.9475 -0.0136 -0.4229
  177POPC    HX 6607   5.048   4.331   6.491  1.8328  0.3965 -1.0015
  177POPC    HY 6608   5.111   4.410   6.344 -0.4290 -1.0842 -0.3933
  177POPC   O31 6609   4.972   4.257   6.309 -0.5108  0.6843 -0.5723
  177POPC   C31 6610   5.040   4.143   6.330  0.0174  0.4383 -0.1459
  177POPC   O32 6611   5.147   4.128   6.385  0.4381 -0.5355  0.1711
  177POPC   C32 6612   4.953   4.022   6.281  0.6229  0.1919  0.1195
  177POPC   H2X 6613   4.863   4.056   6.224  0.9891 -0.2142 -0.7124
  177POPC   H2Y 6614   4.905   3.984   6.374  1.4335  0.2271  0.5558
  177POPC   C23 6615   4.501   4.332   6.471  0.6823 -0.1527  0.0066
  177POPC   H3R 6616   4.446   4.391   6.395 -0.8521 -0.7224  0.6381
  177POPC   H3S 6617   4.418   4.287   6.529 -0.8262  1.6485 -0.6366
  177POPC   C24 6618   4.579   4.211   6.422 -0.0360  0.0962 -1.0341
  177POPC   H4R 6619   4.663   4.186   6.491 -1.8239 -0.8705  0.8828
  177POPC   H4S 6620   4.632   4.245   6.330  0.6797 -0.2568 -0.7562
  177POPC   C25 6621   4.493   4.088   6.385 -0.0682 -0.6255  0.2309
  177POPC   H5R 6622   4.398   4.117   6.336  1.0074 -4.0932 -4.6651
  177POPC   H5S 6623   4.482   4.036   6.482 -0.1516 -1.5096 -0.2376
  177POPC   C26 6624   4.566   3.999   6.282  0.5907  0.2550 -0.3979
  177POPC   H6R 6625   4.509   3.906   6.261  0.4980  0.6971 -2.2595
  177POPC   H6S 6626   4.663   3.969   6.327  0.9210 -0.4658 -1.5442
  177POPC   C27 6627   4.582   4.072   6.151 -0.3839  0.2466  0.6552
  177POPC   H7R 6628   4.658   4.152   6.165  1.6849 -1.6781  1.1381
  177POPC   H7S 6629   4.485   4.119   6.125 -0.9472 -1.5238 -0.6910
  177POPC   C28 6630   4.633   3.981   6.032 -0.3359 -0.3233 -0.3668
  177POPC   H8R 6631   4.539   3.923   6.018 -2.3852  3.1196 -2.1423
  177POPC   H8S 6632   4.716   3.911   6.059 -0.0536 -0.1997 -0.8969
  177POPC   C29 6633   4.665   4.069   5.910 -0.3563  0.0293 -0.5796
  177POPC   H91 6634   4.725   4.159   5.928  0.4055 -0.5740  0.0149
  177POPC  C210 6635   4.637   4.046   5.783  0.2685 -0.0375  0.5056
  177POPC  H101 6636   4.672   4.116   5.705  0.2499  1.5334  1.8656
  177POPC  C211 6637   4.565   3.926   5.728 -0.0721  0.2340 -0.3891
  177POPC  H11R 6638   4.467   3.957   5.689  0.9444  0.3972 -3.0249
  177POPC  H11S 6639   4.541   3.843   5.798 -1.1638 -0.3346 -1.4022
  177POPC  C212 6640   4.630   3.851   5.606  0.7086 -1.1799 -0.3346
  177POPC  H12R 6641   4.729   3.806   5.631  2.5576  2.2392 -0.8656
  177POPC  H12S 6642   4.661   3.933   5.538  0.1565 -0.9884 -0.3593
  177POPC  C213 6643   4.554   3.732   5.550  0.1023 -0.1892 -0.7369
  177POPC  H13R 6644   4.516   3.666   5.631  3.2669 -1.0668  0.1792
  177POPC  H13S 6645   4.626   3.676   5.486  0.4707 -3.4217  2.2096
  177POPC  C214 6646   4.441   3.778   5.454 -0.3283  0.7441  0.5652
  177POPC  H14R 6647   4.381   3.856   5.505 -1.0209  1.4575 -1.2263
  177POPC  H14S 6648   4.384   3.686   5.431 -0.0675  0.8676 -0.6670
  177POPC  C215 6649   4.496   3.827   5.323 -0.0383  0.0613  0.0659
  177POPC  H15R 6650   4.579   3.769   5.278  0.8355  1.0737  0.3259
  177POPC  H15S 6651   4.543   3.925   5.347  0.8499 -0.3146 -0.1380
  177POPC  C216 6652   4.387   3.836   5.219 -0.2453  0.1269  0.2441
  177POPC  H16R 6653   4.296   3.885   5.261 -0.6938 -0.6514  0.1894
  177POPC  H16S 6654   4.353   3.736   5.186 -1.5197  0.5006  0.3593
  177POPC  C217 6655   4.420   3.917   5.094  0.6756 -0.5898 -0.5005
  177POPC  H17R 6656   4.509   3.866   5.049 -0.7395 -0.2871 -3.9718
  177POPC  H17S 6657   4.440   4.022   5.121  1.0966 -1.2535  2.0146
  177POPC  C218 6658   4.301   3.906   4.993 -0.4689 -0.4539  0.5478
  177POPC  H18R 6659   4.274   3.800   4.973 -0.8181 -0.4559  1.0186
  177POPC  H18S 6660   4.324   3.950   4.893 -1.7261  0.0101  0.4469
  177POPC  H18T 6661   4.206   3.944   5.036  0.0901 -0.5691  1.9473
  177POPC   C33 6662   5.031   3.908   6.213  0.0190  0.6758  0.2971
  177POPC   H3X 6663   4.977   3.818   6.177  0.3655  0.8992 -0.8266
  177POPC   H3Y 6664   5.101   3.865   6.288 -1.6952 -1.1194  0.9482
  177POPC   C34 6665   5.110   3.951   6.089 -0.3045  0.0916 -0.0016
  177POPC   H4X 6666   5.165   3.863   6.050  0.6507  0.7056 -0.0744
  177POPC   H4Y 6667   5.185   4.018   6.137 -1.0857  1.8841 -1.1942
  177POPC   C35 6668   5.035   4.028   5.978  0.4950 -0.5188  0.1763
  177POPC   H5X 6669   4.938   4.060   6.021  1.6991  1.9866  1.2164
  177POPC   H5Y 6670   5.017   3.942   5.909 -0.1333 -1.4363  1.4466
  177POPC   C36 6671   5.128   4.121   5.899 -0.2119 -0.2565 -0.1394
  177POPC   H6X 6672   5.217   4.057   5.884  0.1469  0.5935 -1.7671
  177POPC   H6Y 6673   5.145   4.205   5.970 -3.4154 -0.9414  1.6359
  177POPC   C37 6674   5.063   4.175   5.775  0.3340  0.3570  0.3288
  177POPC   H7X 6675   4.975   4.231   5.813 -0.1656  0.0835 -0.4056
  177POPC   H7Y 6676   5.026   4.096   5.707  1.7914  0.5126 -0.6784
  177POPC   C38 6677   5.154   4.265   5.695  0.2544  0.4352  0.5222
  177POPC   H8X 6678   5.251   4.216   5.668 -0.1111 -0.9262  1.5362
  177POPC   H8Y 6679   5.178   4.352   5.759  1.4615  0.7611 -0.3346
  177POPC   C39 6680   5.091   4.328   5.571 -0.6458  0.0804 -0.1204
  177POPC   H9X 6681   4.989   4.361   5.599 -0.3527 -0.9467  2.4197
  177POPC   H9Y 6682   5.065   4.245   5.501 -1.8018  0.7635 -0.5239
  177POPC  C310 6683   5.171   4.439   5.508 -0.0686  0.4931  0.1173
  177POPC  H10X 6684   5.277   4.413   5.491 -0.5016 -1.1180 -0.2892
  177POPC  H10Y 6685   5.181   4.518   5.586  1.4164  0.1477  0.2938
  177POPC  C311 6686   5.125   4.485   5.372 -0.5612 -0.3665 -0.2748
  177POPC  H11X 6687   5.017   4.511   5.379 -0.5470  0.3876 -2.1772
  177POPC  H11Y 6688   5.124   4.393   5.311 -1.6466 -1.2777  1.0666
  177POPC  C312 6689   5.207   4.607   5.323  0.5680 -0.3142  0.0389
  177POPC  H12X 6690   5.316   4.586   5.324  0.4338 -1.0186 -0.0046
  177POPC  H12Y 6691   5.187   4.700   5.380 -1.2866  0.8012 -2.2334
  177POPC  C313 6692   5.172   4.638   5.178 -0.2367  0.2993 -0.0484
  177POPC  H13X 6693   5.160   4.551   5.110  1.7839  0.4536 -0.6827
  177POPC  H13Y 6694   5.264   4.684   5.135 -1.0274  1.6616 -0.3285
  177POPC  C314 6695   5.056   4.733   5.154 -0.4595 -1.2672  0.0633
  177POPC  H14X 6696   5.076   4.830   5.203 -1.1629 -0.6130 -0.9135
  177POPC  H14Y 6697   4.967   4.683   5.199 -1.2089 -0.0909 -0.0783
  177POPC  C315 6698   5.033   4.763   5.004  0.3654 -0.5952 -0.0909
  177POPC  H15X 6699   4.991   4.674   4.952  0.3399  0.9251 -2.8305
  177POPC  H15Y 6700   5.131   4.793   4.961  0.5063  1.5332  1.5144
  177POPC  C316 6701   4.935   4.883   4.994 -0.6018 -0.7009 -0.8046
  177POPC  H16X 6702   4.986   4.974   5.033  3.0712 -1.8598 -2.3584
  177POPC  H16Y 6703   4.846   4.877   5.059  0.3706  0.8440  0.7662
  177POPC  H16Z 6704   4.899   4.889   4.889 -2.3694 -2.3824 -0.3592
  178POPC     N 6705   5.659   3.492   6.752 -0.5583 -0.0645  0.4823
  178POPC   C12 6706   5.683   3.353   6.799  0.0666  0.4541  0.1905
  178POPC  H12A 6707   5.637   3.338   6.896 -1.8051  3.2511 -0.1524
  178POPC  H12B 6708   5.787   3.331   6.820 -0.0943 -1.8503 -1.1484
  178POPC   C13 6709   5.734   3.508   6.624  1.5211  0.3399 -0.2148
  178POPC  H13A 6710   5.711   3.600   6.573 -2.3506  0.5508  1.5456
  178POPC  H13B 6711   5.840   3.508   6.644  1.9030  0.7834 -2.0714
  178POPC  H13C 6712   5.723   3.423   6.558  0.5800  1.4881 -1.5988
  178POPC   C14 6713   5.518   3.519   6.724  0.9677 -0.4051 -0.1408
  178POPC  H14A 6714   5.507   3.606   6.661  1.3617 -0.0119  0.3210
  178POPC  H14B 6715   5.484   3.436   6.664 -0.0794 -1.3496  1.6892
  178POPC  H14C 6716   5.462   3.526   6.816 -0.4468 -2.3683 -0.7931
  178POPC   C15 6717   5.691   3.596   6.858  0.1487 -0.2864 -0.1574
  178POPC  H15A 6718   5.663   3.695   6.828  0.5177  0.8550  2.9289
  178POPC  H15B 6719   5.791   3.606   6.898  0.3072  2.5998 -1.1026
  178POPC  H15C 6720   5.628   3.572   6.943 -0.0470 -1.3408 -0.5801
  178POPC   C11 6721   5.639   3.226   6.707 -0.7906  0.3556  0.3978
  178POPC  H11A 6722   5.674   3.127   6.742 -1.8890 -0.2182 -0.0504
  178POPC  H11B 6723   5.680   3.256   6.608  0.5840  0.7582  1.0769
  178POPC     P 6724   5.425   3.178   6.567  0.0232 -0.0187 -0.3462
  178POPC   O13 6725   5.290   3.136   6.613 -0.2759 -0.3145  0.1551
  178POPC   O14 6726   5.495   3.081   6.488  0.3757  0.0779 -0.6030
  178POPC   O12 6727   5.503   3.219   6.692  0.1986  0.4423  0.1093
  178POPC   O11 6728   5.420   3.308   6.476  0.3978 -0.3172  0.3345
  178POPC    C1 6729   5.494   3.325   6.356 -0.4273 -0.3068 -0.5686
  178POPC    HA 6730   5.578   3.254   6.344 -1.0711 -1.5196  1.5921
  178POPC    HB 6731   5.521   3.432   6.344  0.7701 -0.4575  0.5372
  178POPC    C2 6732   5.398   3.308   6.234  0.2785  0.1658 -0.5602
  178POPC    HS 6733   5.299   3.354   6.255 -0.3942 -0.8733 -1.3142
  178POPC   O21 6734   5.386   3.173   6.202 -0.0703  0.3383 -0.9278
  178POPC   C21 6735   5.287   3.131   6.134  0.0139  0.6792 -0.0425
  178POPC   O22 6736   5.193   3.193   6.091  0.0106 -0.1124  0.0515
  178POPC   C22 6737   5.312   2.985   6.097  0.2857 -0.6196 -0.0665
  178POPC   H2R 6738   5.221   2.951   6.044 -0.8272  2.5816 -0.3770
  178POPC   H2S 6739   5.327   2.934   6.195  2.1750 -1.3235 -0.6669
  178POPC    C3 6740   5.463   3.379   6.113 -0.6349 -0.0537 -0.0820
  178POPC    HX 6741   5.560   3.331   6.086 -0.1887 -0.8503  2.5960
  178POPC    HY 6742   5.486   3.485   6.140  1.9422 -0.1893 -1.4029
  178POPC   O31 6743   5.389   3.377   5.992  0.1771  0.2182 -0.2478
  178POPC   C31 6744   5.278   3.449   5.987  0.1509  0.1067  0.0779
  178POPC   O32 6745   5.249   3.537   6.065  0.4521 -0.2450 -0.1676
  178POPC   C32 6746   5.204   3.405   5.861  0.7064 -0.0985  0.3942
  178POPC   H2X 6747   5.173   3.299   5.875  1.5025 -0.4239 -0.2291
  178POPC   H2Y 6748   5.265   3.425   5.771 -0.3850  1.1520 -0.0956
  178POPC   C23 6749   5.429   2.972   5.994  0.1639  0.8919 -0.3082
  178POPC   H3R 6750   5.476   2.875   6.022  0.8898  1.5330  0.7452
  178POPC   H3S 6751   5.519   3.035   6.011  0.6152  0.2201 -0.1691
  178POPC   C24 6752   5.373   2.972   5.850  0.2337  0.1103 -0.0011
  178POPC   H4R 6753   5.402   3.074   5.817  0.2249  0.0791 -0.1056
  178POPC   H4S 6754   5.265   2.952   5.834 -0.1371  0.7208  1.6262
  178POPC   C25 6755   5.444   2.881   5.750 -1.2150 -1.0339  0.3550
  178POPC   H5R 6756   5.548   2.910   5.723 -1.5404 -1.0025 -0.9671
  178POPC   H5S 6757   5.383   2.897   5.658 -0.3969  2.5074  0.2841
  178POPC   C26 6758   5.444   2.735   5.785  1.0166 -0.2783 -0.2701
  178POPC   H6R 6759   5.340   2.704   5.807  2.1503 -4.4287  0.0237
  178POPC   H6S 6760   5.500   2.716   5.880  0.8388  0.4085 -0.0211
  178POPC   C27 6761   5.479   2.650   5.660 -0.9539  0.3172 -0.1702
  178POPC   H7R 6762   5.565   2.699   5.609 -0.7837 -0.2785 -0.4697
  178POPC   H7S 6763   5.398   2.652   5.584 -0.2558  1.1971 -0.9108
  178POPC   C28 6764   5.523   2.501   5.681 -0.7950 -0.2664  0.2832
  178POPC   H8R 6765   5.614   2.506   5.744 -1.5687 -1.9525  1.6300
  178POPC   H8S 6766   5.551   2.461   5.582 -0.2628 -0.4679  0.5144
  178POPC   C29 6767   5.415   2.431   5.761  0.4159 -0.3755 -0.2989
  178POPC   H91 6768   5.382   2.487   5.850  0.6131  1.1828 -1.1654
  178POPC  C210 6769   5.343   2.316   5.726  0.2056 -0.6746 -0.9376
  178POPC  H101 6770   5.270   2.268   5.792 -1.5813  0.1437 -2.2458
  178POPC  C211 6771   5.372   2.246   5.596  0.4968 -0.3472  0.5998
  178POPC  H11R 6772   5.382   2.136   5.597 -0.7607 -0.4779  0.4585
  178POPC  H11S 6773   5.463   2.284   5.545  0.5558 -2.8026 -1.3212
  178POPC  C212 6774   5.258   2.265   5.484  0.8324  0.7468  0.0119
  178POPC  H12R 6775   5.245   2.372   5.457  1.8983  0.9324  0.1999
  178POPC  H12S 6776   5.167   2.230   5.535  0.6421 -0.2573 -0.9681
  178POPC  C213 6777   5.259   2.170   5.360  0.5175 -0.2372 -0.2742
  178POPC  H13R 6778   5.174   2.187   5.291 -0.2697  1.4284  1.0402
  178POPC  H13S 6779   5.250   2.061   5.384  1.0375 -0.7190 -2.1286
  178POPC  C214 6780   5.377   2.192   5.272  0.3030 -0.1278  0.3928
  178POPC  H14R 6781   5.375   2.132   5.178 -0.4340 -0.6444  0.7268
  178POPC  H14S 6782   5.471   2.163   5.323  0.1940 -0.7613  0.2427
  178POPC  C215 6783   5.396   2.334   5.216 -0.1930 -0.1962 -0.1247
  178POPC  H15R 6784   5.363   2.407   5.294  1.7476 -0.5488  1.1063
  178POPC  H15S 6785   5.321   2.342   5.134  1.6752  0.6280 -1.8289
  178POPC  C216 6786   5.540   2.373   5.175 -0.2244 -0.1979  0.0584
  178POPC  H16R 6787   5.507   2.454   5.108 -2.2018  0.0246  1.2348
  178POPC  H16S 6788   5.600   2.296   5.120  0.8539  1.5784 -1.3692
  178POPC  C217 6789   5.629   2.430   5.284 -0.1269  0.2605  0.1363
  178POPC  H17R 6790   5.659   2.347   5.352 -2.3276 -0.5885  0.1681
  178POPC  H17S 6791   5.559   2.495   5.342  0.1233  0.0322  0.7030
  178POPC  C218 6792   5.747   2.518   5.233  0.4278  0.0546  0.3684
  178POPC  H18R 6793   5.811   2.449   5.175 -2.1881 -0.9961 -1.4860
  178POPC  H18S 6794   5.796   2.569   5.319 -1.8015  0.3217  1.5671
  178POPC  H18T 6795   5.712   2.586   5.153 -1.2468 -0.4176  0.6517
  178POPC   C33 6796   5.067   3.475   5.831 -0.0667 -0.0970 -0.5956
  178POPC   H3X 6797   4.989   3.485   5.909 -0.2491 -0.3219 -0.7501
  178POPC   H3Y 6798   5.017   3.409   5.757  1.1344 -1.4321 -0.2745
  178POPC   C34 6799   5.087   3.614   5.764  0.0533 -0.0379 -0.3125
  178POPC   H4X 6800   5.187   3.609   5.715 -0.4924  2.1834 -1.8447
  178POPC   H4Y 6801   5.092   3.692   5.843  0.8450  2.1504 -2.3980
  178POPC   C35 6802   4.990   3.657   5.647  0.0597 -0.2679 -0.6451
  178POPC   H5X 6803   4.890   3.674   5.691  0.7363  1.8914  0.2221
  178POPC   H5Y 6804   4.985   3.580   5.568  1.5033 -0.2964 -0.7369
  178POPC   C36 6805   5.035   3.788   5.586  0.4065  0.1342  0.0488
  178POPC   H6X 6806   5.145   3.795   5.571  0.1132 -0.0700 -2.7690
  178POPC   H6Y 6807   5.011   3.869   5.658  0.7967 -0.1118  0.4634
  178POPC   C37 6808   4.970   3.805   5.451  0.0074 -0.4412 -0.1403
  178POPC   H7X 6809   4.866   3.763   5.451 -0.5210  0.3695  4.3232
  178POPC   H7Y 6810   5.021   3.738   5.379 -0.5728  0.3322 -1.2982
  178POPC   C38 6811   4.982   3.952   5.402 -0.0929 -0.2963 -0.1487
  178POPC   H8X 6812   5.084   3.962   5.360 -0.6865  1.6440 -1.2542
  178POPC   H8Y 6813   4.972   4.015   5.493  3.0908 -0.5526  0.4851
  178POPC   C39 6814   4.878   3.979   5.289 -0.0776 -0.6846 -0.5380
  178POPC   H9X 6815   4.782   3.937   5.326 -0.6019  0.8133 -0.1372
  178POPC   H9Y 6816   4.913   3.914   5.205  0.3879 -0.0114 -0.8775
  178POPC  C310 6817   4.886   4.128   5.251  0.4864  0.0917 -0.6058
  178POPC  H10X 6818   4.990   4.151   5.218  0.2345 -0.8110 -2.1225
  178POPC  H10Y 6819   4.860   4.184   5.344  1.1153  0.9103 -0.9132
  178POPC  C311 6820   4.785   4.174   5.143  0.3991 -0.7524  0.8413
  178POPC  H11X 6821   4.680   4.152   5.171 -0.8971  2.7798 -0.7209
  178POPC  H11Y 6822   4.819   4.123   5.050  0.1468 -0.6467  0.6869
  178POPC  C312 6823   4.773   4.323   5.118 -0.8256 -0.6004 -0.0233
  178POPC  H12X 6824   4.862   4.357   5.060 -0.3961 -0.2363  0.8374
  178POPC  H12Y 6825   4.764   4.385   5.210  0.4641  0.3707 -0.5196
  178POPC  C313 6826   4.657   4.366   5.022  0.0754 -0.0497  1.0160
  178POPC  H13X 6827   4.670   4.301   4.933 -0.0006  2.0055 -0.5622
  178POPC  H13Y 6828   4.669   4.471   4.987 -0.3885 -0.7297 -1.3877
  178POPC  C314 6829   4.511   4.346   5.065 -0.9678  0.0039 -0.4020
  178POPC  H14X 6830   4.485   4.406   5.155  1.4635  3.4390 -1.7761
  178POPC  H14Y 6831   4.514   4.237   5.085  1.6109 -0.3466 -2.2381
  178POPC  C315 6832   4.412   4.357   4.946  0.0788  0.3007  0.1989
  178POPC  H15X 6833   4.446   4.296   4.860 -0.0845 -0.8749  0.9378
  178POPC  H15Y 6834   4.414   4.459   4.903  0.4388  1.2735  2.3642
  178POPC  C316 6835   4.278   4.299   4.974 -0.0004 -0.3990 -0.3794
  178POPC  H16X 6836   4.205   4.350   4.909  0.6990  1.1568  0.0268
  178POPC  H16Y 6837   4.241   4.322   5.076 -1.7337 -1.7613 -0.6491
  178POPC  H16Z 6838   4.271   4.188   4.967 -0.6950 -0.4727  1.1233
  179POPC     N 6839   3.629   4.230   7.568  0.0921 -0.0836  0.0422
  179POPC   C12 6840   3.773   4.248   7.517  0.6343  0.7167 -0.1874
  179POPC  H12A 6841   3.833   4.163   7.547  1.2996  1.1076 -0.3962
  179POPC  H12B 6842   3.817   4.337   7.559  2.0786  0.9169 -1.9694
  179POPC   C13 6843   3.542   4.334   7.512  0.2776 -0.2703  0.1257
  179POPC  H13A 6844   3.567   4.439   7.525 -1.5812  0.6341 -2.6103
  179POPC  H13B 6845   3.531   4.318   7.406 -0.2792 -1.0161  0.2875
  179POPC  H13C 6846   3.444   4.325   7.558  0.5055  0.3240  0.7478
  179POPC   C14 6847   3.572   4.099   7.544 -0.7499  0.6188  0.1066
  179POPC  H14A 6848   3.469   4.103   7.577 -0.6437 -1.2348  0.8055
  179POPC  H14B 6849   3.575   4.083   7.437  1.7535  3.2951 -0.3223
  179POPC  H14C 6850   3.630   4.027   7.600 -0.5326  0.7149  0.0033
  179POPC   C15 6851   3.638   4.251   7.720  0.2683 -0.0529  0.9011
  179POPC  H15A 6852   3.711   4.185   7.764  0.9922 -1.0852 -1.6370
  179POPC  H15B 6853   3.539   4.243   7.763 -0.1386 -1.4435 -0.2348
  179POPC  H15C 6854   3.665   4.354   7.740  1.2119 -0.1526  0.2148
  179POPC   C11 6855   3.782   4.241   7.362  0.1218 -0.1747 -0.9596
  179POPC  H11A 6856   3.890   4.259   7.344  0.3468 -0.9757 -0.4415
  179POPC  H11B 6857   3.738   4.333   7.319  2.0656  1.9626  1.3263
  179POPC     P 6858   3.839   3.999   7.269 -0.0339 -0.2421 -0.1518
  179POPC   O13 6859   3.775   3.864   7.283 -0.2521 -0.1164 -0.5361
  179POPC   O14 6860   3.969   4.007   7.340  0.1061  0.1609  0.1202
  179POPC   O12 6861   3.738   4.113   7.309  0.1871 -0.8589 -0.7019
  179POPC   O11 6862   3.865   4.018   7.121  0.3591 -0.3248 -0.0902
  179POPC    C1 6863   3.814   4.136   7.046 -0.1722  0.5685 -0.6231
  179POPC    HA 6864   3.872   4.228   7.071  1.1025 -0.7768  1.7613
  179POPC    HB 6865   3.707   4.155   7.071 -0.7383 -0.9735 -1.7525
  179POPC    C2 6866   3.821   4.110   6.895 -0.7880 -1.1763 -0.0997
  179POPC    HS 6867   3.792   4.199   6.834  0.4623 -0.5477  0.1948
  179POPC   O21 6868   3.730   3.999   6.859  0.0724 -0.5316 -0.1292
  179POPC   C21 6869   3.601   4.025   6.835 -0.6268  0.7349  0.1965
  179POPC   O22 6870   3.552   4.130   6.836  0.1491  0.0793 -0.3002
  179POPC   C22 6871   3.524   3.902   6.785 -0.2843  0.1335 -0.5597
  179POPC   H2R 6872   3.442   3.875   6.854 -1.4264  1.6278 -1.2621
  179POPC   H2S 6873   3.591   3.813   6.776 -0.8547 -0.2093 -1.4759
  179POPC    C3 6874   3.963   4.072   6.854 -0.3448 -0.5328  0.0317
  179POPC    HX 6875   3.996   3.988   6.917 -1.0383 -0.3696  0.6241
  179POPC    HY 6876   4.031   4.157   6.873 -1.5631  0.3354  0.6745
  179POPC   O31 6877   3.967   4.033   6.712 -0.0506 -1.1302 -0.5330
  179POPC   C31 6878   4.076   3.967   6.682 -0.0261  1.3092  0.1460
  179POPC   O32 6879   4.166   3.931   6.751 -0.4748 -0.3354 -0.2408
  179POPC   C32 6880   4.073   3.932   6.536  0.2312  0.1612 -0.7724
  179POPC   H2X 6881   4.100   4.028   6.487  0.0468 -0.4860 -2.1846
  179POPC   H2Y 6882   3.969   3.906   6.506 -0.0636  0.6239 -0.1854
  179POPC   C23 6883   3.444   3.923   6.663 -0.2723  0.1535  0.5568
  179POPC   H3R 6884   3.376   4.010   6.671  1.4268  1.4902  0.8348
  179POPC   H3S 6885   3.379   3.834   6.645  1.5846 -0.9006 -1.3674
  179POPC   C24 6886   3.533   3.937   6.541  0.2715  0.0762 -0.2174
  179POPC   H4R 6887   3.588   3.841   6.528  1.9784  1.0376 -0.4040
  179POPC   H4S 6888   3.609   4.018   6.545  0.2681  0.0523  1.8019
  179POPC   C25 6889   3.463   3.939   6.403 -0.0012  0.0168 -0.6390
  179POPC   H5R 6890   3.535   3.918   6.321 -1.0029  0.3680 -1.6376
  179POPC   H5S 6891   3.421   4.042   6.391  0.5976  0.1038 -2.1820
  179POPC   C26 6892   3.339   3.838   6.387  0.6381  0.4115 -0.2248
  179POPC   H6R 6893   3.299   3.862   6.286 -0.1910  2.6875  0.5890
  179POPC   H6S 6894   3.262   3.852   6.466  0.2496 -2.1260 -0.0588
  179POPC   C27 6895   3.387   3.690   6.382 -0.2853 -0.1511  0.5235
  179POPC   H7R 6896   3.423   3.651   6.479  2.4261  0.7641 -0.0362
  179POPC   H7S 6897   3.474   3.674   6.315 -0.3818  0.4437  0.2491
  179POPC   C28 6898   3.271   3.600   6.337 -0.4554  0.3393  1.0485
  179POPC   H8R 6899   3.271   3.623   6.228 -2.5468  0.6832  1.0812
  179POPC   H8S 6900   3.173   3.631   6.379 -1.0918 -0.6644  0.3382
  179POPC   C29 6901   3.282   3.453   6.366  0.0576 -0.3587 -0.7467
  179POPC   H91 6902   3.336   3.433   6.460  0.3671  1.0876 -0.5922
  179POPC  C210 6903   3.258   3.345   6.289  0.5642  0.5883  0.8472
  179POPC  H101 6904   3.282   3.243   6.322  1.4587  1.2172  2.2386
  179POPC  C211 6905   3.210   3.342   6.141 -0.1904 -0.0524  0.2556
  179POPC  H11R 6906   3.168   3.443   6.121  0.8240 -0.1354 -2.7688
  179POPC  H11S 6907   3.124   3.275   6.116 -0.2082  0.2700 -0.5637
  179POPC  C212 6908   3.324   3.326   6.032  0.1038 -0.2757  0.0453
  179POPC  H12R 6909   3.369   3.225   6.046  0.5291 -0.0702  0.1630
  179POPC  H12S 6910   3.397   3.407   6.051 -0.2866 -0.1094  0.8886
  179POPC  C213 6911   3.273   3.336   5.885  0.2864  0.5433  0.6541
  179POPC  H13R 6912   3.258   3.445   5.874  3.0129  0.9456  0.1154
  179POPC  H13S 6913   3.175   3.286   5.869  0.8056 -0.5255  0.6997
  179POPC  C214 6914   3.371   3.281   5.784 -0.0918 -0.2141  0.0463
  179POPC  H14R 6915   3.389   3.175   5.811  0.5286  0.3761  2.0696
  179POPC  H14S 6916   3.465   3.339   5.799  0.0365 -0.6832  1.0730
  179POPC  C215 6917   3.323   3.315   5.636  0.3596 -0.3897  0.0980
  179POPC  H15R 6918   3.416   3.301   5.576  1.1979 -3.2592  1.8456
  179POPC  H15S 6919   3.292   3.421   5.633  0.5436 -0.3414 -0.2708
  179POPC  C216 6920   3.201   3.236   5.591  0.2668  0.9075 -0.1028
  179POPC  H16R 6921   3.112   3.283   5.638  1.6284  3.5944  0.0130
  179POPC  H16S 6922   3.213   3.131   5.626 -1.1683  0.8164  0.1663
  179POPC  C217 6923   3.174   3.239   5.437 -0.3455  0.3481 -0.3688
  179POPC  H17R 6924   3.077   3.192   5.409 -1.3271  2.1809 -0.1946
  179POPC  H17S 6925   3.242   3.163   5.391  1.1262  2.0279 -1.0876
  179POPC  C218 6926   3.196   3.379   5.377  0.2932  0.0533 -0.3043
  179POPC  H18R 6927   3.151   3.386   5.276 -0.3600  0.6052  0.0107
  179POPC  H18S 6928   3.301   3.405   5.353  1.3289 -0.5201  3.0477
  179POPC  H18T 6929   3.164   3.462   5.445  2.6697  0.9929 -0.2340
  179POPC   C33 6930   4.168   3.821   6.484 -0.5538  0.0652  0.1859
  179POPC   H3X 6931   4.126   3.721   6.506  0.8601 -0.3253  1.3231
  179POPC   H3Y 6932   4.262   3.817   6.543 -0.2306 -0.5565 -0.3653
  179POPC   C34 6933   4.197   3.829   6.337  0.2823  0.1374 -0.5884
  179POPC   H4X 6934   4.281   3.764   6.305  0.3924  0.5553 -1.1641
  179POPC   H4Y 6935   4.227   3.932   6.306 -1.1838  1.0832  0.9779
  179POPC   C35 6936   4.082   3.788   6.246 -0.7086  0.2407  0.1464
  179POPC   H5X 6937   3.984   3.830   6.278 -1.2934  0.0784 -1.3813
  179POPC   H5Y 6938   4.070   3.677   6.256 -0.3517  0.1949  0.0684
  179POPC   C36 6939   4.106   3.826   6.093 -0.4011 -0.6086  0.5218
  179POPC   H6X 6940   4.112   3.937   6.084  1.9244 -0.5530  2.0860
  179POPC   H6Y 6941   4.011   3.797   6.043  0.4782 -2.0469 -0.3942
  179POPC   C37 6942   4.229   3.760   6.038  0.1223 -0.7402  0.1156
  179POPC   H7X 6943   4.232   3.651   6.057 -1.2882 -0.6956  0.7010
  179POPC   H7Y 6944   4.320   3.800   6.089  1.1205 -2.5307 -0.1926
  179POPC   C38 6945   4.240   3.804   5.887  0.3202 -0.6732 -1.0310
  179POPC   H8X 6946   4.342   3.777   5.853  1.3677 -0.1295  1.4444
  179POPC   H8Y 6947   4.227   3.913   5.871 -0.1874 -0.6334 -0.3937
  179POPC   C39 6948   4.131   3.743   5.801 -1.0573  0.4791  0.6182
  179POPC   H9X 6949   4.030   3.776   5.833 -2.0343 -1.5028 -0.2463
  179POPC   H9Y 6950   4.150   3.633   5.798  0.9423  0.7794 -2.4846
  179POPC  C310 6951   4.151   3.775   5.651 -0.2750 -0.7656 -0.3777
  179POPC  H10X 6952   4.247   3.745   5.605  0.3618  0.1055  0.3529
  179POPC  H10Y 6953   4.142   3.885   5.634 -1.2732 -1.2153 -3.1939
  179POPC  C311 6954   4.040   3.711   5.567  0.0677 -0.5406 -0.4575
  179POPC  H11X 6955   3.936   3.719   5.605  0.5665 -1.6568  1.2350
  179POPC  H11Y 6956   4.073   3.605   5.570  2.2166  0.0181 -1.9653
  179POPC  C312 6957   4.051   3.737   5.414  0.2188 -0.5958  1.0347
  179POPC  H12X 6958   4.156   3.712   5.388  0.1771  1.9333 -2.1772
  179POPC  H12Y 6959   4.020   3.842   5.394  0.3263 -0.9459 -1.1710
  179POPC  C313 6960   3.967   3.647   5.322  0.1883 -0.7165 -0.1948
  179POPC  H13X 6961   3.858   3.667   5.336  0.1194  0.7625 -2.2594
  179POPC  H13Y 6962   3.993   3.540   5.337 -1.8561 -0.8988  3.0126
  179POPC  C314 6963   3.986   3.692   5.175  0.0870 -0.1676  0.3613
  179POPC  H14X 6964   4.088   3.677   5.133  0.8163  1.5718  1.4320
  179POPC  H14Y 6965   3.955   3.798   5.167  0.7580  0.0587  0.7026
  179POPC  C315 6966   3.894   3.611   5.083  0.5047 -0.2478  0.4723
  179POPC  H15X 6967   3.791   3.594   5.121  0.8023 -1.1276  0.9201
  179POPC  H15Y 6968   3.943   3.511   5.071  0.2113 -0.2272 -1.1415
  179POPC  C316 6969   3.879   3.681   4.948 -0.0996 -1.0813 -0.5622
  179POPC  H16X 6970   3.976   3.712   4.903 -0.8402 -0.4423 -1.7847
  179POPC  H16Y 6971   3.804   3.763   4.957  0.4123 -0.4983 -1.3667
  179POPC  H16Z 6972   3.827   3.610   4.879 -1.9907 -0.3523  0.0345
  180POPC     N 6973   0.176   5.322   6.144  0.3841 -0.5139  0.0138
  180POPC   C12 6974   0.075   5.354   6.252  0.1646  0.7448 -0.2946
  180POPC  H12A 6975   0.130   5.366   6.344  0.8423 -1.6821 -0.3222
  180POPC  H12B 6976   0.015   5.266   6.273  0.8887  1.3017  5.9212
  180POPC   C13 6977   0.257   5.206   6.189 -0.0511 -0.6074 -0.0794
  180POPC  H13A 6978   0.201   5.116   6.209  0.9299 -1.1856  0.1122
  180POPC  H13B 6979   0.331   5.171   6.119  1.7025 -0.3680  1.5394
  180POPC  H13C 6980   0.323   5.226   6.273  0.3118 -0.5950 -0.3688
  180POPC   C14 6981   0.114   5.279   6.014 -0.3309 -0.7488  0.2608
  180POPC  H14A 6982   0.035   5.209   6.036  0.5905 -1.1112  2.6865
  180POPC  H14B 6983   0.077   5.357   5.949 -2.5376 -1.2131  0.8684
  180POPC  H14C 6984   0.191   5.235   5.953 -0.1945 -1.5023  0.9623
  180POPC   C15 6985   0.264   5.439   6.122  0.3690  0.2575 -0.7800
  180POPC  H15A 6986   0.201   5.522   6.094 -0.1172 -0.1915 -1.0446
  180POPC  H15B 6987   0.335   5.426   6.042 -0.2713 -2.0214 -1.0678
  180POPC  H15C 6988   0.310   5.458   6.218 -0.3044  0.7052 -0.5383
  180POPC   C11 6989   6.411   5.463   6.227 -0.7375  0.0061  0.6820
  180POPC  H11A 6990   6.349   5.458   6.319 -0.8333  0.4794  0.6475
  180POPC  H11B 6991   6.348   5.443   6.137  1.2224 -1.7030 -0.4114
  180POPC     P 6992   0.080   5.672   6.335 -0.1255 -0.0316 -0.2356
  180POPC   O13 6993   0.174   5.590   6.418  0.1081 -0.4237  0.0824
  180POPC   O14 6994   6.408   5.728   6.405 -0.0599  0.1430 -0.5227
  180POPC   O12 6995   0.021   5.598   6.208  0.4188  0.0286  0.9283
  180POPC   O11 6996   0.166   5.783   6.268  0.2799 -0.6904 -0.3750
  180POPC    C1 6997   0.135   5.928   6.296 -0.0370 -0.2014 -0.2505
  180POPC    HA 6998   0.226   5.986   6.322 -2.2389  1.8921  3.6418
  180POPC    HB 6999   0.060   5.939   6.377 -1.0065 -1.0995 -0.9800
  180POPC    C2 7000   0.066   6.004   6.181  0.0590 -0.0392 -0.6624
  180POPC    HS 7001   0.045   6.103   6.225  0.8704 -0.1045 -0.1072
  180POPC   O21 7002   6.400   5.923   6.128 -0.8653  0.5505  0.3304
  180POPC   C21 7003   6.285   5.960   6.176 -0.3160 -0.0040  0.0502
  180POPC   O22 7004   6.263   6.045   6.265 -0.4771  0.5000  0.6298
  180POPC   C22 7005   6.168   5.883   6.103 -0.1361  0.2231 -0.2210
  180POPC   H2R 7006   6.085   5.889   6.176 -1.5374 -0.0071 -1.7232
  180POPC   H2S 7007   6.192   5.776   6.084 -0.2957  0.2266 -0.4565
  180POPC    C3 7008   0.174   6.024   6.073  0.2166 -0.4764  0.0344
  180POPC    HX 7009   0.185   5.924   6.026  1.4983 -0.4840  0.3319
  180POPC    HY 7010   0.274   6.040   6.118 -1.0282  0.3716  2.7059
  180POPC   O31 7011   0.128   6.120   5.973  0.5475  0.4721  0.0191
  180POPC   C31 7012   0.209   6.135   5.872 -0.4487  0.2755 -0.5087
  180POPC   O32 7013   0.311   6.066   5.855 -0.0540  0.1354 -0.7086
  180POPC   C32 7014   0.173   6.255   5.789  0.1104 -0.1035  0.1871
  180POPC   H2X 7015   0.269   6.288   5.743 -0.3580 -0.2348 -0.9185
  180POPC   H2Y 7016   0.146   6.341   5.853  0.8399  0.3959 -0.1657
  180POPC   C23 7017   6.102   5.955   5.987 -0.9163 -0.7042  0.2719
  180POPC   H3R 7018   6.115   6.065   5.997 -0.2498 -0.3519 -3.1823
  180POPC   H3S 7019   5.994   5.929   5.980 -0.6846 -1.3105 -1.9327
  180POPC   C24 7020   6.179   5.921   5.854  0.4864 -0.2633 -0.1396
  180POPC   H4R 7021   6.288   5.927   5.875  0.2980  0.7967  0.6219
  180POPC   H4S 7022   6.155   6.000   5.780 -3.4709  0.2896  1.4460
  180POPC   C25 7023   6.142   5.775   5.795 -0.1211 -0.9634 -0.5570
  180POPC   H5R 7024   6.039   5.794   5.759  1.0145  1.9447 -2.6182
  180POPC   H5S 7025   6.134   5.706   5.882  1.2597 -2.1437 -1.3248
  180POPC   C26 7026   6.238   5.719   5.691  0.0051 -0.2324  0.3374
  180POPC   H6R 7027   6.190   5.625   5.658 -0.8967  1.2678 -2.9657
  180POPC   H6S 7028   6.339   5.706   5.735  0.1356 -0.7500 -0.1135
  180POPC   C27 7029   6.255   5.810   5.568 -0.3282  0.7701  0.5976
  180POPC   H7R 7030   6.287   5.912   5.598 -0.1743  0.6002  1.0278
  180POPC   H7S 7031   6.155   5.823   5.522  0.0761  1.3579 -0.1322
  180POPC   C28 7032   6.342   5.741   5.460  0.4473 -0.4940  0.2291
  180POPC   H8R 7033   6.369   5.822   5.389 -1.5708  1.3089  1.3839
  180POPC   H8S 7034   6.280   5.674   5.396  1.5387 -2.1142  0.7997
  180POPC   C29 7035   0.022   5.669   5.513  1.0993  0.1675  0.0264
  180POPC   H91 7036   0.078   5.731   5.585 -1.7033  2.0594  0.7598
  180POPC  C210 7037   0.044   5.534   5.499 -0.4784  0.7942 -0.3859
  180POPC  H101 7038   0.127   5.487   5.554 -1.0871  0.5186  0.3181
  180POPC  C211 7039   6.416   5.438   5.410  0.3906 -0.1699  0.4389
  180POPC  H11R 7040   6.308   5.444   5.434 -0.6460 -2.0232 -3.0092
  180POPC  H11S 7041   6.446   5.336   5.444 -1.3726 -0.7803  0.2900
  180POPC  C212 7042   0.004   5.472   5.268 -0.1120 -0.2289 -0.2616
  180POPC  H12R 7043   0.113   5.459   5.247 -0.1105  1.2388 -1.3512
  180POPC  H12S 7044  -0.013   5.580   5.244  0.0262 -0.1730 -0.1105
  180POPC  C213 7045   6.357   5.395   5.175  0.3775  0.3021 -0.4330
  180POPC  H13R 7046   6.254   5.411   5.213  0.5688  2.7621 -0.8118
  180POPC  H13S 7047   6.381   5.286   5.182 -0.9141  0.0312 -0.0461
  180POPC  C214 7048   6.366   5.447   5.030 -0.0040 -0.3542  0.0339
  180POPC  H14R 7049   6.472   5.473   5.009 -0.0777  0.2110  0.3498
  180POPC  H14S 7050   6.316   5.545   5.021  3.7339  1.6638 -0.9341
  180POPC  C215 7051   6.321   5.341   4.927 -0.5077 -0.4221  0.3319
  180POPC  H15R 7052   6.388   5.253   4.913 -0.1338  0.0835 -1.3245
  180POPC  H15S 7053   6.319   5.400   4.833  1.4186 -1.1978 -0.2383
  180POPC  C216 7054   6.181   5.291   4.928  0.3254  0.2803  0.1317
  180POPC  H16R 7055   6.115   5.379   4.946  1.0706  0.3837  2.7412
  180POPC  H16S 7056   6.170   5.211   5.004  3.9734 -0.6022 -0.0787
  180POPC  C217 7057   6.141   5.214   4.791 -0.5508  0.0016 -0.2178
  180POPC  H17R 7058   6.165   5.275   4.702  1.7435 -2.2467 -1.2681
  180POPC  H17S 7059   6.033   5.190   4.784 -0.5807  0.1905 -0.3975
  180POPC  C218 7060   6.212   5.078   4.761 -0.0697  0.4207  1.0707
  180POPC  H18R 7061   6.200   5.002   4.842  1.3243  0.5210  1.3885
  180POPC  H18S 7062   6.321   5.093   4.750 -0.2740  1.0963 -0.1004
  180POPC  H18T 7063   6.173   5.028   4.670  1.1833  0.5208  0.4519
  180POPC   C33 7064   0.088   6.225   5.662  1.1865  0.4431 -0.1162
  180POPC   H3X 7065   0.118   6.126   5.621 -2.2228 -0.1986 -1.3769
  180POPC   H3Y 7066   0.126   6.293   5.583 -1.6308  2.7723  0.3809
  180POPC   C34 7067   6.389   6.248   5.697  0.2095 -0.6336  0.4751
  180POPC   H4X 7068   6.383   6.351   5.740  1.2025 -0.4660  0.2215
  180POPC   H4Y 7069   6.360   6.168   5.768  2.2580 -0.4961  1.5447
  180POPC   C35 7070   6.284   6.236   5.583  0.3199  0.2001  0.5905
  180POPC   H5X 7071   6.181   6.246   5.624  0.6651  1.3316  1.2650
  180POPC   H5Y 7072   6.288   6.131   5.550  1.5571  0.6950 -0.9316
  180POPC   C36 7073   6.291   6.329   5.463 -0.0227 -0.4419  0.1672
  180POPC   H6X 7074   6.394   6.316   5.423 -0.8541 -1.8379 -1.6677
  180POPC   H6Y 7075   6.255   6.428   5.499  0.4747  0.1579 -0.9505
  180POPC   C37 7076   6.196   6.288   5.342 -0.3464  0.5675  0.6048
  180POPC   H7X 7077   6.110   6.242   5.395  1.2378 -0.6348  2.2320
  180POPC   H7Y 7078   6.232   6.198   5.287 -2.3150 -1.8241  2.9715
  180POPC   C38 7079   6.169  -0.040   5.253 -0.0654 -0.2347 -0.0729
  180POPC   H8X 7080   6.242   0.041   5.273  1.2986 -1.4478  0.0031
  180POPC   H8Y 7081   6.074   0.010   5.280  0.4762 -0.0039  1.5183
  180POPC   C39 7082   6.173   6.374   5.103 -0.2225 -0.0225  0.5706
  180POPC   H9X 7083   6.112   6.443   5.041 -1.6801  0.0160  1.9825
  180POPC   H9Y 7084   6.134   6.272   5.083  0.1651 -0.3650  1.5339
  180POPC  C310 7085   6.318   6.371   5.054  0.2079  0.0710  0.1841
  180POPC  H10X 7086   6.356   6.281   5.106  0.0802 -1.7541 -2.6852
  180POPC  H10Y 7087   6.377   6.465   5.066 -2.9871  2.2040  0.4952
  180POPC  C311 7088   6.332   6.325   4.907 -0.3807  0.5724 -0.0530
  180POPC  H11X 7089   6.297   6.406   4.840  2.1303  1.2312 -0.6592
  180POPC  H11Y 7090   6.277   6.234   4.875  0.8097  0.1683 -1.0290
  180POPC  C312 7091   0.030   6.283   4.875  0.1095  0.0406 -0.0769
  180POPC  H12X 7092   0.071   6.196   4.931  0.2988  2.0293  3.1171
  180POPC  H12Y 7093   0.096   6.369   4.899 -1.3534  0.9352  0.9607
  180POPC  C313 7094   0.052   6.251   4.721  0.3270 -0.0496 -0.3833
  180POPC  H13X 7095   0.152   6.201   4.718  0.1777 -0.6187  2.0123
  180POPC  H13Y 7096   0.043   6.338   4.652 -0.4302  0.1099 -0.0910
  180POPC  C314 7097   6.398   6.155   4.666  0.1138 -0.2471 -0.3117
  180POPC  H14X 7098   6.296   6.195   4.650 -0.6983 -2.2677 -0.5384
  180POPC  H14Y 7099   6.389   6.066   4.732 -1.7926  0.1751  0.0566
  180POPC  C315 7100  -0.002   6.106   4.527  0.0652  0.0962 -0.3289
  180POPC  H15X 7101   0.071   6.024   4.539 -1.4711 -1.3044 -0.1567
  180POPC  H15Y 7102   0.044   6.190   4.471 -0.0386  2.0888  2.3620
  180POPC  C316 7103   6.336   6.047   4.437  0.2649  0.4732 -0.0599
  180POPC  H16X 7104   6.370   6.035   4.332  0.2469  0.8727 -0.1115
  180POPC  H16Y 7105   6.243   6.108   4.446  0.0867  0.2825 -0.5755
  180POPC  H16Z 7106   6.297   5.951   4.478 -0.7363  1.1279  0.5541
  181POPC     N 7107   1.212   3.568   6.922  0.5860  0.2763 -0.0796
  181POPC   C12 7108   1.119   3.682   6.880 -0.1722 -0.0650  0.6790
  181POPC  H12A 7109   1.039   3.692   6.952 -0.0788 -5.4081  1.9500
  181POPC  H12B 7110   1.071   3.658   6.786  0.1543  1.3297  0.1295
  181POPC   C13 7111   1.136   3.444   6.925  0.2803 -0.2945  0.3712
  181POPC  H13A 7112   1.067   3.443   6.842  0.9927  0.5507 -0.2449
  181POPC  H13B 7113   1.196   3.354   6.932 -0.6282 -1.0722 -1.3522
  181POPC  H13C 7114   1.067   3.428   7.007  0.1863  0.5119  0.4563
  181POPC   C14 7115   1.307   3.556   6.809  0.2673  0.4177 -0.2458
  181POPC  H14A 7116   1.367   3.645   6.805  1.9556 -0.4761  2.4309
  181POPC  H14B 7117   1.378   3.474   6.815  1.9079  1.7760 -0.4336
  181POPC  H14C 7118   1.258   3.551   6.713 -1.5354  1.0000  0.6051
  181POPC   C15 7119   1.278   3.606   7.056  0.1009  0.1037 -0.5110
  181POPC  H15A 7120   1.204   3.648   7.123  1.0440 -0.6635  1.0712
  181POPC  H15B 7121   1.353   3.681   7.036  0.6920 -0.3398  0.0012
  181POPC  H15C 7122   1.320   3.521   7.108 -1.1259 -0.2838 -0.1010
  181POPC   C11 7123   1.175   3.821   6.862 -0.6271 -0.1156 -0.2777
  181POPC  H11A 7124   1.234   3.851   6.952 -2.3464  2.2951  0.1598
  181POPC  H11B 7125   1.083   3.883   6.858 -0.0888  0.8208  0.9335
  181POPC     P 7126   1.191   3.823   6.597 -0.1214  0.1472 -0.6935
  181POPC   O13 7127   1.186   3.948   6.528  0.1577  0.2553  0.2523
  181POPC   O14 7128   1.065   3.749   6.600 -0.8480 -0.3392 -0.4964
  181POPC   O12 7129   1.249   3.837   6.741 -0.2647 -0.2550 -0.0179
  181POPC   O11 7130   1.293   3.730   6.531  0.2266 -0.3950 -0.6247
  181POPC    C1 7131   1.373   3.765   6.419 -0.9236 -0.0251  0.5628
  181POPC    HA 7132   1.451   3.689   6.398  0.4766  2.4085 -4.4243
  181POPC    HB 7133   1.424   3.864   6.425  0.1363 -0.5934  1.5553
  181POPC    C2 7134   1.286   3.780   6.282 -0.4570 -0.3499 -0.6391
  181POPC    HS 7135   1.233   3.877   6.285 -1.1489 -0.7039 -1.0700
  181POPC   O21 7136   1.200   3.668   6.286  0.1439 -0.4151  0.3381
  181POPC   C21 7137   1.083   3.692   6.238  0.2242  0.5503  0.1843
  181POPC   O22 7138   1.042   3.797   6.189 -0.3347  0.1643 -0.0534
  181POPC   C22 7139   1.005   3.563   6.250  0.0926 -0.5801  0.2801
  181POPC   H2R 7140   0.900   3.597   6.235  1.3186  3.2475 -0.4832
  181POPC   H2S 7141   1.021   3.532   6.356  2.1632  2.4163  0.9727
  181POPC    C3 7142   1.374   3.760   6.151  0.0588  0.2270  0.4733
  181POPC    HX 7143   1.418   3.658   6.152  2.2442  1.0463 -2.0379
  181POPC    HY 7144   1.464   3.825   6.152 -0.1623  0.5516 -0.2863
  181POPC   O31 7145   1.295   3.769   6.028 -0.2717 -0.5820  0.0846
  181POPC   C31 7146   1.275   3.896   5.983 -0.6850 -0.8508  0.2446
  181POPC   O32 7147   1.310   3.994   6.048 -0.0080 -0.4494  0.7515
  181POPC   C32 7148   1.195   3.904   5.848  0.7005  0.1494  0.7958
  181POPC   H2X 7149   1.127   3.991   5.860  1.5322  0.9302  0.0072
  181POPC   H2Y 7150   1.137   3.810   5.837 -0.0007  0.6649  0.0018
  181POPC   C23 7151   1.046   3.454   6.154 -0.0165 -0.9456  0.3201
  181POPC   H3R 7152   0.993   3.362   6.186 -1.2597 -1.1337 -2.0468
  181POPC   H3S 7153   1.155   3.435   6.168  0.3333 -0.0448 -0.9804
  181POPC   C24 7154   1.012   3.489   6.007 -0.7111  0.5102 -0.3624
  181POPC   H4R 7155   1.055   3.405   5.948  3.0414  1.3464  0.9283
  181POPC   H4S 7156   1.079   3.574   5.983  1.3550 -1.4355 -1.9168
  181POPC   C25 7157   0.871   3.511   5.970  0.1906 -0.1470 -0.1710
  181POPC   H5R 7158   0.823   3.590   6.032  0.3536 -0.4070  0.2931
  181POPC   H5S 7159   0.825   3.411   5.987  4.2190 -2.4123 -1.2176
  181POPC   C26 7160   0.860   3.558   5.821  0.2413  0.4211 -0.0743
  181POPC   H6R 7161   0.893   3.475   5.755  0.5095  0.4180  0.0614
  181POPC   H6S 7162   0.922   3.647   5.800  1.3155 -0.4560 -0.7091
  181POPC   C27 7163   0.721   3.601   5.780  0.6537  0.3260 -0.5119
  181POPC   H7R 7164   0.701   3.708   5.800  1.4249  0.4580 -0.4215
  181POPC   H7S 7165   0.646   3.534   5.828  1.5600 -1.0671 -0.9820
  181POPC   C28 7166   0.697   3.592   5.626  1.2483  0.6606  0.3088
  181POPC   H8R 7167   0.725   3.486   5.607  1.8367  0.9688 -0.6236
  181POPC   H8S 7168   0.766   3.667   5.583  1.8435  0.0526  0.1857
  181POPC   C29 7169   0.549   3.622   5.610 -0.2265  0.3763 -0.0166
  181POPC   H91 7170   0.478   3.538   5.609 -0.7725  0.8348 -0.2584
  181POPC  C210 7171   0.510   3.740   5.568 -0.0422 -0.4683 -0.3901
  181POPC  H101 7172   0.402   3.765   5.571  0.1625  1.0825 -2.7898
  181POPC  C211 7173   0.599   3.863   5.547 -0.2907  0.1241  0.7300
  181POPC  H11R 7174   0.682   3.870   5.620 -0.9148  0.9744  1.3772
  181POPC  H11S 7175   0.552   3.963   5.563 -0.5972  0.1018  0.0225
  181POPC  C212 7176   0.658   3.883   5.407 -0.2173  0.4178  0.8027
  181POPC  H12R 7177   0.689   3.783   5.369 -0.9715  0.5270 -0.1394
  181POPC  H12S 7178   0.744   3.954   5.412 -2.0007  2.6243  3.4022
  181POPC  C213 7179   0.552   3.937   5.313  0.5905  0.4169 -0.6647
  181POPC  H13R 7180   0.515   4.026   5.368 -0.0272  0.2096 -0.7353
  181POPC  H13S 7181   0.462   3.872   5.306 -1.2916  2.9741 -1.7360
  181POPC  C214 7182   0.607   3.965   5.183 -0.6532  0.5444 -0.4056
  181POPC  H14R 7183   0.638   3.866   5.142 -0.4655 -0.8868  2.8733
  181POPC  H14S 7184   0.690   4.038   5.189 -0.5220  0.4262 -0.7355
  181POPC  C215 7185   0.504   4.024   5.092  0.2776 -0.0740  0.9049
  181POPC  H15R 7186   0.437   3.940   5.065 -1.7889  1.3263  1.3733
  181POPC  H15S 7187   0.560   4.059   5.003 -1.3036  1.2460  0.3702
  181POPC  C216 7188   0.424   4.145   5.137  0.1893  0.1354 -0.6194
  181POPC  H16R 7189   0.396   4.211   5.051  1.1014  1.3050 -0.0554
  181POPC  H16S 7190   0.492   4.213   5.192  0.0257 -0.0711 -0.1647
  181POPC  C217 7191   0.286   4.120   5.206 -0.1167  0.3489 -0.4604
  181POPC  H17R 7192   0.306   4.106   5.314 -3.3189  1.5935  0.4023
  181POPC  H17S 7193   0.263   4.016   5.175  1.7585 -0.8218  1.7329
  181POPC  C218 7194   0.178   4.223   5.194 -0.3477  0.1489 -0.4133
  181POPC  H18R 7195   0.096   4.209   5.268 -0.4705  0.9700 -0.3855
  181POPC  H18S 7196   0.134   4.215   5.092 -1.0111 -1.7434 -0.0247
  181POPC  H18T 7197   0.225   4.320   5.221  0.3394 -1.1284  3.6844
  181POPC   C33 7198   1.300   3.930   5.736 -0.3435  0.0441  0.3264
  181POPC   H3X 7199   1.370   3.844   5.731  0.9193  0.9995  1.0384
  181POPC   H3Y 7200   1.357   4.021   5.763  1.4186 -0.3150 -1.8501
  181POPC   C34 7201   1.230   3.959   5.602  0.3894  0.3935  0.1856
  181POPC   H4X 7202   1.159   4.043   5.612 -0.0912  0.0579 -0.3135
  181POPC   H4Y 7203   1.182   3.866   5.563 -0.2638 -0.3212  2.5302
  181POPC   C35 7204   1.335   4.013   5.501 -0.2426  0.0644 -0.9499
  181POPC   H5X 7205   1.374   3.928   5.441 -0.3761 -0.3143 -0.5045
  181POPC   H5Y 7206   1.426   4.053   5.549  0.1311 -2.5639  0.7218
  181POPC   C36 7207   1.276   4.098   5.386  0.2227  0.8147 -0.3050
  181POPC   H6X 7208   1.343   4.090   5.298 -2.1823 -0.2007 -2.1584
  181POPC   H6Y 7209   1.258   4.205   5.405 -0.0746  0.7333 -0.1302
  181POPC   C37 7210   1.151   4.038   5.325 -0.7351 -0.0647 -0.0150
  181POPC   H7X 7211   1.062   4.064   5.385 -1.1384 -1.2441 -0.0734
  181POPC   H7Y 7212   1.171   3.929   5.319  2.9781  0.4855 -0.2693
  181POPC   C38 7213   1.121   4.078   5.176 -0.1934 -0.1513 -0.1607
  181POPC   H8X 7214   1.183   4.008   5.114 -0.3821 -0.8612  0.4336
  181POPC   H8Y 7215   1.156   4.183   5.168 -0.3884  0.1123  1.8973
  181POPC   C39 7216   0.977   4.046   5.139 -0.0071 -0.3976  0.3870
  181POPC   H9X 7217   0.912   4.123   5.185 -2.2737 -2.5108  0.9037
  181POPC   H9Y 7218   0.952   3.956   5.199 -1.4496  1.2952  2.4460
  181POPC  C310 7219   0.947   4.038   4.986 -0.7269 -0.2156 -0.1022
  181POPC  H10X 7220   0.896   3.942   4.966  0.2347 -0.5853 -0.8457
  181POPC  H10Y 7221   1.043   4.021   4.932  0.2199  0.7882  1.1771
  181POPC  C311 7222   0.881   4.160   4.933  0.0004 -0.2981  0.3622
  181POPC  H11X 7223   0.944   4.250   4.944  0.8789 -0.4768 -2.3344
  181POPC  H11Y 7224   0.795   4.175   5.001 -0.5371 -2.2474  0.1667
  181POPC  C312 7225   0.845   4.154   4.784 -0.0354  0.6584 -0.2989
  181POPC  H12X 7226   0.774   4.071   4.762  1.9319 -1.1125 -0.2953
  181POPC  H12Y 7227   0.932   4.138   4.716  0.2906  2.9609 -0.5204
  181POPC  C313 7228   0.782   4.278   4.728 -0.0689 -0.1585  0.1114
  181POPC  H13X 7229   0.836   4.367   4.769  0.3629 -0.0256 -0.7265
  181POPC  H13Y 7230   0.679   4.298   4.764  0.9293 -0.3643  3.3803
  181POPC  C314 7231   0.776   4.275   4.572 -0.4248  0.0827  0.1044
  181POPC  H14X 7232   0.704   4.196   4.542  2.4613 -2.8929  0.5530
  181POPC  H14Y 7233   0.867   4.245   4.517 -1.7122 -2.0735 -0.9489
  181POPC  C315 7234   0.740   4.415   4.516 -0.2522  0.1623  0.1530
  181POPC  H15X 7235   0.813   4.491   4.550  0.0376 -0.7124  1.5315
  181POPC  H15Y 7236   0.639   4.445   4.552 -0.0618  1.2802 -0.2176
  181POPC  C316 7237   0.737   4.418   4.354 -0.2408 -0.1501 -0.2277
  181POPC  H16X 7238   0.843   4.397   4.327  0.0309  0.1249  0.5907
  181POPC  H16Y 7239   0.715   4.523   4.325 -0.2821 -0.4180 -1.1821
  181POPC  H16Z 7240   0.664   4.344   4.314 -0.2995  0.9289 -2.2391
  182POPC     N 7241   4.865   0.101   6.741 -0.3615  0.2401 -0.0566
  182POPC   C12 7242   4.741   0.126   6.662 -0.0960 -0.1799 -0.0749
  182POPC  H12A 7243   4.762   0.174   6.568  0.8881 -3.5180 -1.7277
  182POPC  H12B 7244   4.688   0.194   6.727 -0.3765 -1.2852  0.8913
  182POPC   C13 7245   4.959   6.453   6.673  0.0226 -0.6474  0.3751
  182POPC  H13A 7246   4.974   6.487   6.572  2.0640  1.2670  1.2510
  182POPC  H13B 7247   5.058   6.441   6.715  1.1682 -2.2140 -2.4808
  182POPC  H13C 7248   4.923   6.352   6.666  0.0313 -0.6046 -0.3308
  182POPC   C14 7249   4.937   0.223   6.752 -0.1660 -0.4332 -0.1131
  182POPC  H14A 7250   5.032   0.208   6.801 -0.2319  0.4946  0.3163
  182POPC  H14B 7251   4.956   0.281   6.662 -0.7757 -1.1653 -0.7268
  182POPC  H14C 7252   4.875   0.292   6.808  0.0074  0.2021 -0.6793
  182POPC   C15 7253   4.841   0.042   6.875 -0.6622  1.0367 -0.2331
  182POPC  H15A 7254   4.773   0.103   6.933  2.0613  2.6428  1.5281
  182POPC  H15B 7255   4.930   0.034   6.937 -1.8221  0.0693  1.3805
  182POPC  H15C 7256   4.800  -0.057   6.869  0.7096  0.3529  1.0182
  182POPC   C11 7257   4.658   6.443   6.632 -0.0116  0.5941 -0.1973
  182POPC  H11A 7258   4.722   6.359   6.599 -0.3129  0.5321 -0.6288
  182POPC  H11B 7259   4.585   6.458   6.550 -1.2365  1.8034  1.0558
  182POPC     P 7260   4.432   0.002   6.776  0.0097 -0.1222 -0.0265
  182POPC   O13 7261   4.415   0.142   6.733 -1.0259 -0.3314  0.4053
  182POPC   O14 7262   4.396   6.418   6.918  0.3860  0.3233  0.6480
  182POPC   O12 7263   4.580   6.403   6.748  0.3796 -0.1852 -0.1094
  182POPC   O11 7264   4.336   6.357   6.687 -0.2563  0.5633 -0.5509
  182POPC    C1 7265   4.369   6.216   6.667  0.6079 -0.8984 -0.3844
  182POPC    HA 7266   4.273   6.160   6.660 -0.4653  0.4239  2.3733
  182POPC    HB 7267   4.424   6.181   6.756  0.6025 -0.1353 -0.0749
  182POPC    C2 7268   4.447   6.184   6.535 -0.6033 -1.3516  0.0089
  182POPC    HS 7269   4.554   6.201   6.558 -0.9484  0.4739  0.4287
  182POPC   O21 7270   4.410   6.278   6.428  0.5128  0.5800 -0.0675
  182POPC   C21 7271   4.504   6.306   6.347  0.2515 -0.9777 -0.0830
  182POPC   O22 7272   4.623   6.272   6.351 -0.2188  0.1997  0.2830
  182POPC   C22 7273   4.450  -0.038   6.245 -0.4807  0.4437 -0.5868
  182POPC   H2R 7274   4.494   0.063   6.261  1.9836 -0.5820 -0.4144
  182POPC   H2S 7275   4.341  -0.019   6.252 -0.5955 -0.4090  0.0576
  182POPC    C3 7276   4.438   6.034   6.502 -0.1406 -0.6007 -0.3994
  182POPC    HX 7277   4.332   6.023   6.470  0.1620 -0.5967 -1.4384
  182POPC    HY 7278   4.453   5.974   6.595 -0.2861  0.1249  0.1061
  182POPC   O31 7279   4.518   6.006   6.382  0.0663  0.1960  0.0089
  182POPC   C31 7280   4.649   5.976   6.401  0.0819 -0.0063 -0.7226
  182POPC   O32 7281   4.704   5.963   6.510  0.1279  0.4408  0.3117
  182POPC   C32 7282   4.714   5.956   6.266 -0.8709  0.0867 -0.6521
  182POPC   H2X 7283   4.671   6.026   6.191  1.5921  1.8673 -0.5406
  182POPC   H2Y 7284   4.689   5.851   6.240  3.0877 -0.8493 -1.3919
  182POPC   C23 7285   4.476   6.345   6.109  0.1282 -0.8194 -0.9468
  182POPC   H3R 7286   4.586   6.348   6.094 -0.1936 -1.2404 -3.9550
  182POPC   H3S 7287   4.430   6.418   6.038 -0.3909  0.5796  0.7554
  182POPC   C24 7288   4.414   6.210   6.092 -0.2169  1.2669  0.6386
  182POPC   H4R 7289   4.305   6.220   6.108 -0.8550 -3.4032  0.6751
  182POPC   H4S 7290   4.445   6.139   6.172  3.0758  3.9628  2.0055
  182POPC   C25 7291   4.440   6.145   5.953  0.2040  0.0891  0.1478
  182POPC   H5R 7292   4.547   6.118   5.950 -0.2118 -1.6358 -2.7993
  182POPC   H5S 7293   4.421   6.213   5.867 -1.8160 -0.1188  0.3661
  182POPC   C26 7294   4.370   6.009   5.923  0.2842 -0.3456 -0.5129
  182POPC   H6R 7295   4.398   5.978   5.820 -1.0567  0.2584 -1.0796
  182POPC   H6S 7296   4.262   6.035   5.914 -0.1085 -1.5099  0.4368
  182POPC   C27 7297   4.397   5.901   6.029 -0.4221  0.1100 -0.5317
  182POPC   H7R 7298   4.351   5.932   6.125 -1.4698 -0.7385 -0.7332
  182POPC   H7S 7299   4.508   5.903   6.034 -0.3322 -1.8046 -0.9552
  182POPC   C28 7300   4.359   5.761   5.992  0.0438 -0.1620  0.3963
  182POPC   H8R 7301   4.403   5.688   6.063  3.9548  0.3231 -1.2900
  182POPC   H8S 7302   4.421   5.735   5.904 -1.5386 -0.1215 -0.7880
  182POPC   C29 7303   4.217   5.744   5.954 -0.8321  0.2559 -0.4020
  182POPC   H91 7304   4.154   5.744   6.044 -0.2417  3.2868  0.1104
  182POPC  C210 7305   4.163   5.741   5.831  0.6722  0.0498  0.2954
  182POPC  H101 7306   4.055   5.722   5.828  0.8317 -0.9555  0.2812
  182POPC  C211 7307   4.240   5.730   5.703 -0.0850  0.1275 -0.0818
  182POPC  H11R 7308   4.221   5.628   5.663  0.0184  0.4682 -1.0286
  182POPC  H11S 7309   4.350   5.741   5.718  0.5643 -2.1529 -2.5116
  182POPC  C212 7310   4.197   5.820   5.590 -0.3395 -0.4611 -0.7447
  182POPC  H12R 7311   4.224   5.923   5.621 -1.1660 -0.7217  0.9480
  182POPC  H12S 7312   4.087   5.812   5.580 -0.2521  0.7034 -3.4555
  182POPC  C213 7313   4.249   5.779   5.456  0.8165  0.0702  0.6838
  182POPC  H13R 7314   4.219   5.673   5.444 -2.2416  1.0290 -1.4083
  182POPC  H13S 7315   4.360   5.784   5.449  0.9095 -2.4835 -0.5358
  182POPC  C214 7316   4.206   5.862   5.336 -0.1837 -0.4897  0.0795
  182POPC  H14R 7317   4.095   5.859   5.336 -0.2419  0.1440  2.2053
  182POPC  H14S 7318   4.237   5.809   5.244 -2.4645 -3.8649  1.0653
  182POPC  C215 7319   4.269   6.004   5.341  0.1154 -0.5711 -0.2592
  182POPC  H15R 7320   4.312   6.010   5.444 -1.6837 -1.7102  0.6148
  182POPC  H15S 7321   4.199   6.088   5.329  1.4026  0.6668  0.6052
  182POPC  C216 7322   4.383   6.029   5.248 -0.1960 -0.3934 -0.1518
  182POPC  H16R 7323   4.468   5.959   5.255  2.6874  2.7920 -0.6595
  182POPC  H16S 7324   4.428   6.122   5.290 -1.8788  0.5270 -0.2868
  182POPC  C217 7325   4.344   6.048   5.109  0.0401 -0.2472 -0.0323
  182POPC  H17R 7326   4.277   6.136   5.109 -1.3988 -1.2860  1.4332
  182POPC  H17S 7327   4.295   5.953   5.078  0.7906 -1.0122  1.0617
  182POPC  C218 7328   4.447   6.077   5.008 -0.1755 -0.7901  0.2398
  182POPC  H18R 7329   4.507   6.171   5.014  0.0165 -0.8563 -0.5890
  182POPC  H18S 7330   4.520   5.995   4.994  2.6567  1.5478  0.4320
  182POPC  H18T 7331   4.396   6.080   4.909  2.8226 -0.9511 -1.4163
  182POPC   C33 7332   4.872   5.982   6.274  0.3179  0.6665  0.5415
  182POPC   H3X 7333   4.931   5.897   6.312  4.2300  1.4236 -3.0499
  182POPC   H3Y 7334   4.898   6.079   6.323 -2.0037  2.2404 -1.1341
  182POPC   C34 7335   4.923   6.005   6.123 -0.0433 -0.1537 -0.2429
  182POPC   H4X 7336   5.028   6.041   6.128 -0.6338  1.6236  0.0490
  182POPC   H4Y 7337   4.861   6.084   6.074  1.5803  0.7369 -0.9614
  182POPC   C35 7338   4.914   5.872   6.041 -0.4720 -0.4839  0.5725
  182POPC   H5X 7339   4.809   5.833   6.039 -0.5206 -0.7362 -4.4563
  182POPC   H5Y 7340   4.981   5.795   6.086  0.9013  0.1531 -0.3263
  182POPC   C36 7341   4.934   5.877   5.882 -0.3752 -0.0707  0.1661
  182POPC   H6X 7342   4.873   5.964   5.851 -1.8628 -1.2613 -0.3175
  182POPC   H6Y 7343   4.899   5.793   5.820  0.5472 -0.3225 -0.0285
  182POPC   C37 7344   5.075   5.898   5.840 -0.0380  0.5076  0.1016
  182POPC   H7X 7345   5.132   5.812   5.882 -0.1826  0.7202  0.7553
  182POPC   H7Y 7346   5.109   5.999   5.871  0.9187  0.4018 -0.5904
  182POPC   C38 7347   5.099   5.875   5.685  0.1434  0.7792 -0.0256
  182POPC   H8X 7348   5.055   5.959   5.627  1.9325  0.2411 -2.3319
  182POPC   H8Y 7349   5.057   5.775   5.658  1.6741  0.5136 -1.6003
  182POPC   C39 7350   5.244   5.870   5.638 -0.8256 -0.5471 -0.8010
  182POPC   H9X 7351   5.295   5.793   5.701  1.4006  1.1586 -0.3724
  182POPC   H9Y 7352   5.293   5.964   5.670 -3.8112 -0.0942  3.1540
  182POPC  C310 7353   5.266   5.827   5.498 -1.1255  0.2074  0.3246
  182POPC  H10X 7354   5.230   5.905   5.429  1.3079  1.6593  0.5890
  182POPC  H10Y 7355   5.377   5.831   5.497 -1.1320  0.8527  0.9569
  182POPC  C311 7356   5.207   5.686   5.471  0.5638 -0.2486  0.2253
  182POPC  H11X 7357   5.095   5.682   5.472  0.5152  0.5273  1.9005
  182POPC  H11Y 7358   5.235   5.618   5.554  0.2241 -0.9225 -0.2031
  182POPC  C312 7359   5.260   5.631   5.338  0.1659  0.6942 -0.0281
  182POPC  H12X 7360   5.370   5.623   5.354  0.2237  0.0848 -0.7144
  182POPC  H12Y 7361   5.260   5.717   5.267  3.1119 -0.8908 -2.1439
  182POPC  C313 7362   5.196   5.504   5.273 -0.1716  0.1359 -0.4567
  182POPC  H13X 7363   5.240   5.482   5.174  0.5571 -0.9163  0.0817
  182POPC  H13Y 7364   5.092   5.540   5.256 -0.5202 -0.7939 -0.3975
  182POPC  C314 7365   5.197   5.379   5.348  0.3238 -0.1387 -0.4574
  182POPC  H14X 7366   5.188   5.392   5.458  0.0380  0.1232 -0.5112
  182POPC  H14Y 7367   5.298   5.344   5.317 -0.3600 -0.7161 -2.1031
  182POPC  C315 7368   5.086   5.282   5.299 -0.1822  0.0483  0.2697
  182POPC  H15X 7369   4.988   5.319   5.336 -0.0584 -0.2242  0.8886
  182POPC  H15Y 7370   5.100   5.184   5.349 -0.1627  0.6985  1.6110
  182POPC  C316 7371   5.082   5.260   5.146  0.3073  0.3883 -0.2631
  182POPC  H16X 7372   5.021   5.171   5.121  1.7340 -0.5974 -0.3630
  182POPC  H16Y 7373   5.183   5.241   5.103  1.2412  1.1330  1.5110
  182POPC  H16Z 7374   5.035   5.346   5.092 -1.7014  0.0210  0.7992
  183POPC     N 7375   4.699   1.864   6.995  0.1662 -0.7969 -0.3431
  183POPC   C12 7376   4.652   1.814   6.856 -0.1346  0.2618 -0.1863
  183POPC  H12A 7377   4.545   1.805   6.853 -0.0690 -1.0496  0.8071
  183POPC  H12B 7378   4.693   1.714   6.854 -1.5085 -0.4604  3.0372
  183POPC   C13 7379   4.848   1.849   7.015  0.6066  0.6967 -0.0682
  183POPC  H13A 7380   4.870   1.743   7.016  1.6481  0.7919 -2.9460
  183POPC  H13B 7381   4.892   1.886   6.924  0.6362 -0.9587 -0.7697
  183POPC  H13C 7382   4.886   1.898   7.103 -1.2063  1.9817  0.0548
  183POPC   C14 7383   4.659   2.012   7.018  0.2227 -0.0242 -0.3035
  183POPC  H14A 7384   4.682   2.067   6.928 -1.7080  2.2661  0.5036
  183POPC  H14B 7385   4.554   2.022   7.037  0.7426 -0.6519  3.8805
  183POPC  H14C 7386   4.722   2.052   7.096  0.7504 -0.9797 -0.2149
  183POPC   C15 7387   4.650   1.784   7.112 -0.8657 -0.2325 -0.4263
  183POPC  H15A 7388   4.548   1.818   7.120 -0.5740  1.3933 -2.6243
  183POPC  H15B 7389   4.705   1.822   7.197  0.6021 -2.0017 -0.5257
  183POPC  H15C 7390   4.671   1.678   7.104 -1.5652 -0.3300 -1.1022
  183POPC   C11 7391   4.696   1.900   6.731 -0.0788 -0.1477  0.1899
  183POPC  H11A 7392   4.623   1.984   6.732  0.8732  0.7047  1.6529
  183POPC  H11B 7393   4.675   1.835   6.643  1.0334  1.6389 -1.4779
  183POPC     P 7394   4.936   1.848   6.648 -0.3662 -0.1796  0.2801
  183POPC   O13 7395   4.925   1.710   6.691  0.2584 -0.2294 -0.2582
  183POPC   O14 7396   5.067   1.903   6.671 -0.3948 -0.3411  0.7694
  183POPC   O12 7397   4.835   1.937   6.733  0.3056 -0.4979 -0.0182
  183POPC   O11 7398   4.903   1.857   6.491  0.7604  0.8078  0.1637
  183POPC    C1 7399   4.860   1.978   6.431 -0.5244 -0.3173  0.5563
  183POPC    HA 7400   4.948   2.028   6.385 -0.4462 -1.2228 -0.2988
  183POPC    HB 7401   4.811   2.047   6.503  0.2400  0.1080  0.6769
  183POPC    C2 7402   4.759   1.951   6.328 -0.5974 -1.1043  0.9064
  183POPC    HS 7403   4.687   1.887   6.383  2.5316 -4.4151  1.5194
  183POPC   O21 7404   4.835   1.882   6.230 -0.1132 -0.9205  0.0713
  183POPC   C21 7405   4.812   1.747   6.224 -0.8797 -0.3928 -0.5682
  183POPC   O22 7406   4.723   1.696   6.289  0.3653 -0.4105 -0.2479
  183POPC   C22 7407   4.893   1.661   6.128  0.2991  0.4153 -0.0187
  183POPC   H2R 7408   4.976   1.613   6.185  0.5785  2.8116  1.7430
  183POPC   H2S 7409   4.934   1.733   6.054 -2.1492  1.3564 -0.5246
  183POPC    C3 7410   4.698   2.081   6.268  0.4070 -0.2438 -0.0265
  183POPC    HX 7411   4.779   2.143   6.222  0.0565  0.2174 -0.0295
  183POPC    HY 7412   4.642   2.136   6.346  0.7562 -1.5977  1.2098
  183POPC   O31 7413   4.612   2.055   6.158 -0.4632  0.6428  0.4233
  183POPC   C31 7414   4.496   2.000   6.179 -0.4970  0.1550 -0.2071
  183POPC   O32 7415   4.453   1.959   6.291  0.3708  0.0927  0.5445
  183POPC   C32 7416   4.417   2.003   6.050 -0.3392 -0.1895 -0.3112
  183POPC   H2X 7417   4.385   2.107   6.026 -0.1406 -0.2407 -0.8287
  183POPC   H2Y 7418   4.321   1.946   6.060 -2.0789  2.3868 -1.2142
  183POPC   C23 7419   4.793   1.556   6.058  0.6066 -0.8284 -0.5896
  183POPC   H3R 7420   4.721   1.520   6.134 -0.0156  2.6897  0.6473
  183POPC   H3S 7421   4.853   1.481   6.002 -0.0088  0.5710 -3.3530
  183POPC   C24 7422   4.702   1.612   5.940 -0.0252  0.1777 -0.3100
  183POPC   H4R 7423   4.748   1.680   5.865  0.5596 -0.0802 -0.1861
  183POPC   H4S 7424   4.624   1.672   5.991 -0.6624 -1.2380  0.4329
  183POPC   C25 7425   4.629   1.498   5.872  0.2187  0.3891  0.1769
  183POPC   H5R 7426   4.529   1.524   5.831  0.9371  1.8087 -0.7449
  183POPC   H5S 7427   4.616   1.432   5.960  1.4847 -0.3647 -0.1686
  183POPC   C26 7428   4.710   1.422   5.764  0.5781  0.1092 -0.4123
  183POPC   H6R 7429   4.674   1.318   5.751  1.2100  0.0384 -1.8448
  183POPC   H6S 7430   4.818   1.414   5.789  0.6395  1.7944 -0.0305
  183POPC   C27 7431   4.716   1.504   5.634 -0.3537  0.7060 -0.5459
  183POPC   H7R 7432   4.779   1.448   5.561  0.4149  0.8602 -0.0087
  183POPC   H7S 7433   4.778   1.589   5.670  1.8194 -1.9334  2.5540
  183POPC   C28 7434   4.584   1.545   5.561  0.6218  0.3581  0.0274
  183POPC   H8R 7435   4.597   1.616   5.477 -2.3809  2.0276  0.8160
  183POPC   H8S 7436   4.537   1.611   5.637 -0.8110 -0.0367 -0.4817
  183POPC   C29 7437   4.489   1.432   5.533  0.2149  0.1868  0.5427
  183POPC   H91 7438   4.399   1.424   5.596 -0.1936  0.4289 -0.0062
  183POPC  C210 7439   4.498   1.349   5.428  0.6949  0.2631 -0.6823
  183POPC  H101 7440   4.418   1.273   5.421  1.0034 -0.0573 -0.7557
  183POPC  C211 7441   4.598   1.344   5.311 -0.3674 -0.1975 -0.0062
  183POPC  H11R 7442   4.649   1.245   5.308 -0.7263 -0.3613 -0.9102
  183POPC  H11S 7443   4.670   1.428   5.321 -0.1951 -0.0594 -1.9678
  183POPC  C212 7444   4.524   1.362   5.176 -0.1901  0.1013  0.0494
  183POPC  H12R 7445   4.445   1.285   5.175  0.1347 -0.2360  0.2208
  183POPC  H12S 7446   4.593   1.353   5.090 -1.7745  1.5143 -1.4566
  183POPC  C213 7447   4.435   1.487   5.165  0.1735  0.1875 -0.5389
  183POPC  H13R 7448   4.502   1.576   5.162  3.5881 -2.0568  1.5122
  183POPC  H13S 7449   4.377   1.512   5.256  0.3493  0.7031 -0.5632
  183POPC  C214 7450   4.343   1.483   5.048  0.7676  0.4348  0.1718
  183POPC  H14R 7451   4.252   1.423   5.070  0.4228  0.4595 -1.0848
  183POPC  H14S 7452   4.391   1.429   4.963 -1.3731  0.8743 -1.4084
  183POPC  C215 7453   4.304   1.626   4.995  0.1576 -0.2848  0.0622
  183POPC  H15R 7454   4.392   1.683   4.960 -0.0880  0.3004  0.3923
  183POPC  H15S 7455   4.251   1.686   5.072  0.4682 -0.7640  0.6637
  183POPC  C216 7456   4.209   1.618   4.870 -0.1321  0.3351  0.2937
  183POPC  H16R 7457   4.247   1.536   4.805  0.5734  1.6483 -1.0287
  183POPC  H16S 7458   4.222   1.715   4.816 -1.5646  1.3624  1.7092
  183POPC  C217 7459   4.061   1.599   4.902 -0.1169 -0.1465  0.4688
  183POPC  H17R 7460   4.041   1.520   4.977 -2.6165 -1.1331 -1.1151
  183POPC  H17S 7461   4.011   1.561   4.810  1.8945 -0.6985 -0.4503
  183POPC  C218 7462   3.982   1.721   4.959  0.3244 -0.5982  0.4171
  183POPC  H18R 7463   3.961   1.794   4.878  0.4970 -0.3308  0.6071
  183POPC  H18S 7464   4.050   1.772   5.031 -0.3233 -1.3066  1.5705
  183POPC  H18T 7465   3.888   1.709   5.016  0.5543 -1.3429  0.6522
  183POPC   C33 7466   4.492   1.943   5.927 -0.3131  0.1943 -0.3804
  183POPC   H3X 7467   4.486   1.832   5.925  0.1717 -0.1253  4.1573
  183POPC   H3Y 7468   4.601   1.967   5.927 -0.4193  0.6881 -0.3851
  183POPC   C34 7469   4.430   1.984   5.793  0.1714  0.6373  0.7463
  183POPC   H4X 7470   4.442   2.095   5.785  2.0369  0.3719 -1.5265
  183POPC   H4Y 7471   4.322   1.963   5.778  0.4932  0.9883 -3.0427
  183POPC   C35 7472   4.516   1.930   5.677  0.4408  0.0754 -0.8187
  183POPC   H5X 7473   4.507   1.821   5.698  1.6003 -0.0425 -0.8625
  183POPC   H5Y 7474   4.626   1.946   5.682  0.6734 -1.0058 -1.9854
  183POPC   C36 7475   4.462   1.970   5.546  0.7248  0.0537 -0.2153
  183POPC   H6X 7476   4.433   2.078   5.546  1.9578  0.4010 -1.3304
  183POPC   H6Y 7477   4.372   1.910   5.521 -0.2769  0.7077  1.6095
  183POPC   C37 7478   4.557   1.956   5.428 -0.4209  0.1813  0.2672
  183POPC   H7X 7479   4.565   1.848   5.402 -1.0449  0.2851 -0.3877
  183POPC   H7Y 7480   4.658   1.992   5.454 -1.0877  2.4905 -0.1056
  183POPC   C38 7481   4.519   2.038   5.311  0.4356 -0.5777  0.0434
  183POPC   H8X 7482   4.607   2.033   5.243  0.4851 -1.1735  0.1445
  183POPC   H8Y 7483   4.506   2.146   5.332 -1.2995 -0.3373 -1.8889
  183POPC   C39 7484   4.404   1.986   5.225 -0.0463  0.4244 -0.1923
  183POPC   H9X 7485   4.310   1.975   5.283  2.0978  0.4220  3.6184
  183POPC   H9Y 7486   4.435   1.886   5.188 -1.4118 -0.0794 -0.0384
  183POPC  C310 7487   4.388   2.076   5.111  0.2735  0.3557  0.0327
  183POPC  H10X 7488   4.483   2.111   5.064  0.7836 -0.5510  0.3593
  183POPC  H10Y 7489   4.325   2.166   5.129  0.7466  0.4672  1.2308
  183POPC  C311 7490   4.311   2.006   4.996 -0.2747 -0.3091  0.3937
  183POPC  H11X 7491   4.215   1.976   5.043 -0.5505 -0.0768 -0.0071
  183POPC  H11Y 7492   4.376   1.920   4.968 -0.2858 -0.2858  0.2936
  183POPC  C312 7493   4.295   2.098   4.874  0.1114 -0.0502 -0.0275
  183POPC  H12X 7494   4.394   2.120   4.830 -0.2255  1.4126 -0.1182
  183POPC  H12Y 7495   4.241   2.189   4.909  1.4636  0.7166  0.1077
  183POPC  C313 7496   4.214   2.032   4.763  0.5188  0.0013 -0.3308
  183POPC  H13X 7497   4.124   1.978   4.799  0.9319 -0.9711 -0.6946
  183POPC  H13Y 7498   4.270   1.942   4.728  1.6040  0.6399 -0.2948
  183POPC  C314 7499   4.173   2.146   4.664  0.0401  0.6409  0.0197
  183POPC  H14X 7500   4.255   2.197   4.609 -0.4765  2.2584  0.6936
  183POPC  H14Y 7501   4.125   2.226   4.723 -1.0004  2.0184 -2.5444
  183POPC  C315 7502   4.067   2.096   4.564  0.3137 -0.2113  0.3397
  183POPC  H15X 7503   3.985   2.037   4.612 -1.2103 -0.8630 -2.8100
  183POPC  H15Y 7504   4.118   2.023   4.498 -1.2827 -0.5689 -0.5393
  183POPC  C316 7505   4.016   2.209   4.477  0.1168 -0.7738 -0.7208
  183POPC  H16X 7506   3.969   2.281   4.546  2.3773 -1.3230  1.5490
  183POPC  H16Y 7507   3.935   2.183   4.405  1.8643 -2.7107 -2.1127
  183POPC  H16Z 7508   4.104   2.258   4.429  0.1947  1.7861  1.8062
  184POPC     N 7509   0.995   5.495   6.410 -0.4542  0.2143  0.4017
  184POPC   C12 7510   0.962   5.409   6.289  0.1660 -0.1650  0.2792
  184POPC  H12A 7511   0.919   5.320   6.334  1.6879 -0.1766  1.8465
  184POPC  H12B 7512   1.049   5.367   6.242  0.3340 -0.0589  0.4940
  184POPC   C13 7513   1.077   5.611   6.372  0.3685 -0.3818 -0.3599
  184POPC  H13A 7514   1.091   5.684   6.450 -1.7656 -0.7566  0.4403
  184POPC  H13B 7515   1.171   5.574   6.334  0.9449 -1.1324  1.6686
  184POPC  H13C 7516   1.027   5.670   6.297  1.1274  1.6441  0.6331
  184POPC   C14 7517   0.861   5.542   6.456 -0.2835  0.5123  0.4621
  184POPC  H14A 7518   0.867   5.588   6.553  0.1448 -1.8247  1.6053
  184POPC  H14B 7519   0.809   5.609   6.390 -1.8971 -0.3733  0.7780
  184POPC  H14C 7520   0.791   5.461   6.469 -0.5783  0.9629  1.7661
  184POPC   C15 7521   1.078   5.429   6.516 -0.1122  0.6695 -0.5028
  184POPC  H15A 7522   1.039   5.334   6.547 -2.5203  1.0727 -2.0286
  184POPC  H15B 7523   1.088   5.491   6.604 -0.3044 -0.4271  0.3161
  184POPC  H15C 7524   1.180   5.422   6.482 -0.4262  4.6815 -3.0267
  184POPC   C11 7525   0.876   5.471   6.174  0.1491  0.8743 -0.2639
  184POPC  H11A 7526   0.892   5.396   6.093  1.0375  4.4752 -3.7598
  184POPC  H11B 7527   0.911   5.568   6.132 -2.0763  2.4958  1.4006
  184POPC     P 7528   0.632   5.368   6.192 -0.0482  0.2083 -0.1899
  184POPC   O13 7529   0.524   5.388   6.292 -0.3919  0.1735  0.2210
  184POPC   O14 7530   0.700   5.238   6.202  0.8788 -0.1716  0.0106
  184POPC   O12 7531   0.740   5.480   6.209  0.1103  0.0815  0.1149
  184POPC   O11 7532   0.574   5.382   6.049 -0.3067  0.8447 -0.0822
  184POPC    C1 7533   0.671   5.407   5.944 -0.4272 -0.7149  0.6687
  184POPC    HA 7534   0.739   5.323   5.921  0.2021  0.1515 -0.7612
  184POPC    HB 7535   0.731   5.499   5.957  0.3460 -0.5976 -2.7833
  184POPC    C2 7536   0.597   5.441   5.808  0.3037  0.8008 -0.9609
  184POPC    HS 7537   0.504   5.499   5.830 -0.4317 -0.9672  0.9310
  184POPC   O21 7538   0.552   5.325   5.742  0.6929 -0.7671 -0.1981
  184POPC   C21 7539   0.443   5.265   5.789 -0.5542  0.1967 -0.6610
  184POPC   O22 7540   0.352   5.323   5.844  0.6229  0.1039  0.2231
  184POPC   C22 7541   0.452   5.116   5.747 -0.9178  0.6989 -0.5620
  184POPC   H2R 7542   0.538   5.074   5.803  0.1334  2.8282 -0.4608
  184POPC   H2S 7543   0.459   5.102   5.637 -0.1411 -3.0616 -0.1528
  184POPC    C3 7544   0.676   5.530   5.710 -0.1882  0.6045  0.5912
  184POPC    HX 7545   0.625   5.535   5.611  3.1982  0.8876 -1.2666
  184POPC    HY 7546   0.772   5.479   5.688  0.8981  2.5399  0.6470
  184POPC   O31 7547   0.694   5.664   5.761  0.3971  0.4138 -0.7147
  184POPC   C31 7548   0.807   5.676   5.818 -0.5167  0.3075 -0.0382
  184POPC   O32 7549   0.891   5.589   5.823  0.3163  0.3892  0.6052
  184POPC   C32 7550   0.822   5.817   5.868 -0.0886  0.4578 -0.3767
  184POPC   H2X 7551   0.926   5.817   5.908 -0.3018  0.0091  0.1954
  184POPC   H2Y 7552   0.760   5.853   5.953  1.1129  1.3515  0.1481
  184POPC   C23 7553   0.319   5.043   5.784 -0.6229 -0.4119  0.5837
  184POPC   H3R 7554   0.287   5.062   5.888  0.7077  0.2116  0.9104
  184POPC   H3S 7555   0.341   4.935   5.779 -0.3619 -0.5848  3.7500
  184POPC   C24 7556   0.199   5.087   5.692 -0.4551  0.0365 -0.1105
  184POPC   H4R 7557   0.220   5.084   5.583  0.8277  1.2289  0.0738
  184POPC   H4S 7558   0.189   5.197   5.707  2.1994  0.2269  0.9762
  184POPC   C25 7559   0.072   5.015   5.730  0.0145 -0.3985 -0.1668
  184POPC   H5R 7560   0.050   5.036   5.837  0.9826  0.2164 -0.0738
  184POPC   H5S 7561   0.084   4.906   5.718 -0.4253 -0.3636 -0.9822
  184POPC   C26 7562   6.384   5.031   5.648 -0.5840  0.0986  0.3076
  184POPC   H6R 7563   6.359   5.138   5.638  2.3944  0.9005  0.6077
  184POPC   H6S 7564   6.299   4.970   5.687  0.7924 -2.1026  0.0482
  184POPC   C27 7565  -0.031   4.990   5.501  0.2372  0.5403 -0.9572
  184POPC   H7R 7566   0.023   4.893   5.501 -0.5169  0.1066  0.5651
  184POPC   H7S 7567   0.051   5.060   5.471  1.5705  0.4031  2.0161
  184POPC   C28 7568   6.289   4.992   5.407  0.3410  0.2326 -0.0570
  184POPC   H8R 7569   6.216   5.069   5.438 -2.5308 -2.1763 -0.3723
  184POPC   H8S 7570   6.234   4.899   5.432 -1.0095  0.7931 -0.8613
  184POPC   C29 7571   6.306   5.018   5.260 -0.3754  0.7080  0.1169
  184POPC   H91 7572   6.412   5.031   5.233 -0.3498 -0.5177 -0.4690
  184POPC  C210 7573   6.215   5.012   5.169  0.0611 -0.2132  0.1183
  184POPC  H101 7574   6.243   5.016   5.063  1.8676  0.6515  0.5833
  184POPC  C211 7575   6.073   4.983   5.201 -0.7963  0.0086 -0.1343
  184POPC  H11R 7576   6.024   5.077   5.233 -1.2291 -0.0578 -0.5889
  184POPC  H11S 7577   6.072   4.916   5.290 -2.6462 -0.7983 -0.7170
  184POPC  C212 7578   6.000   4.918   5.084  0.6345  0.1293 -0.3740
  184POPC  H12R 7579   6.056   4.831   5.043 -0.3610 -0.9683  0.5281
  184POPC  H12S 7580   5.999   4.976   4.989 -0.6193 -1.0838 -1.1384
  184POPC  C213 7581   5.864   4.867   5.131  0.3685  0.6142 -0.1365
  184POPC  H13R 7582   5.808   4.945   5.187 -2.3237 -0.6858 -0.8458
  184POPC  H13S 7583   5.887   4.794   5.211 -1.2806  0.9777  0.7092
  184POPC  C214 7584   5.779   4.815   5.012 -0.6629  0.3098 -0.4143
  184POPC  H14R 7585   5.847   4.760   4.944  0.7843 -0.1902  1.3658
  184POPC  H14S 7586   5.739   4.905   4.960  0.9405 -0.5562 -3.3866
  184POPC  C215 7587   5.663   4.719   5.053  0.2825 -0.1724 -0.3043
  184POPC  H15R 7588   5.697   4.642   5.126  0.4741  0.5213  0.3421
  184POPC  H15S 7589   5.640   4.656   4.964 -1.6342 -1.0061  0.7152
  184POPC  C216 7590   5.532   4.787   5.098 -0.1582  0.2709  0.3281
  184POPC  H16R 7591   5.464   4.702   5.118  2.0977 -3.0149 -4.2877
  184POPC  H16S 7592   5.488   4.839   5.010  1.3927  0.0112 -0.6496
  184POPC  C217 7593   5.546   4.890   5.209  0.2473 -0.5797 -0.3506
  184POPC  H17R 7594   5.602   4.978   5.171 -0.8056 -0.0234 -0.6494
  184POPC  H17S 7595   5.601   4.839   5.291  0.3560 -0.9142 -0.6283
  184POPC  C218 7596   5.409   4.952   5.267 -0.3193 -0.1378  0.2437
  184POPC  H18R 7597   5.431   5.030   5.343  3.0423  1.3200 -2.0091
  184POPC  H18S 7598   5.348   4.866   5.304  2.3478 -1.1370  2.6963
  184POPC  H18T 7599   5.346   5.002   5.190  0.0483  0.8724  0.5924
  184POPC   C33 7600   0.812   5.928   5.759  0.1563 -0.2510  0.7553
  184POPC   H3X 7601   0.715   5.930   5.705  1.1492 -0.6897 -1.0950
  184POPC   H3Y 7602   0.896   5.920   5.687 -2.1656  0.7072 -2.2884
  184POPC   C34 7603   0.824   6.072   5.825  0.4220  0.5962 -0.2353
  184POPC   H4X 7604   0.912   6.078   5.893 -0.7123 -0.9610  1.4768
  184POPC   H4Y 7605   0.739   6.092   5.894 -0.9856 -0.0628 -1.7230
  184POPC   C35 7606   0.846   6.167   5.710  0.4281 -0.2109 -0.0385
  184POPC   H5X 7607   0.763   6.147   5.639 -1.0920  0.9550  1.3209
  184POPC   H5Y 7608   0.940   6.153   5.652 -0.7894 -1.3825 -1.8419
  184POPC   C36 7609   0.834   6.322   5.739 -0.3354  0.2970 -0.4210
  184POPC   H6X 7610   0.764   6.322   5.825  0.5883 -2.3502  0.4352
  184POPC   H6Y 7611   0.786   6.369   5.650 -0.4700 -1.3561 -1.2522
  184POPC   C37 7612   0.972   6.374   5.779 -0.3349  0.6701  0.2617
  184POPC   H7X 7613   1.032   6.284   5.804  1.1893  2.0303  1.8775
  184POPC   H7Y 7614   0.971   6.448   5.863 -1.9129  0.8842  0.0819
  184POPC   C38 7615   1.052  -0.007   5.664 -0.2878  0.0643  0.5102
  184POPC   H8X 7616   1.162  -0.020   5.674 -0.2560  0.3881  0.5714
  184POPC   H8Y 7617   1.032   0.102   5.667  1.8936  0.5155  0.4629
  184POPC   C39 7618   1.030   6.398   5.522  0.4282  0.0379 -0.4356
  184POPC   H9X 7619   0.924   6.397   5.491 -0.3720  0.5765  2.1140
  184POPC   H9Y 7620   1.060   6.291   5.515 -0.2125 -0.1265 -0.7222
  184POPC  C310 7621   1.101   0.044   5.415  0.1645  0.0864  0.4073
  184POPC  H10X 7622   1.095  -0.014   5.320 -3.2383 -0.7120  0.9859
  184POPC  H10Y 7623   1.209   0.056   5.439  0.4614  1.6135 -1.3823
  184POPC  C311 7624   1.034   0.178   5.404  0.3302  0.0907  0.6813
  184POPC  H11X 7625   1.026   0.238   5.497 -0.3458 -2.0695  2.0709
  184POPC  H11Y 7626   0.928   0.170   5.373  0.7490  0.5069 -0.9972
  184POPC  C312 7627   1.101   0.264   5.296  0.0526 -0.1159  0.4616
  184POPC  H12X 7628   1.202   0.299   5.326 -0.2553  1.8328 -0.6102
  184POPC  H12Y 7629   1.042   0.358   5.290  0.7768  0.4814  2.2811
  184POPC  C313 7630   1.103   0.195   5.156 -0.1934 -0.2928 -0.1124
  184POPC  H13X 7631   1.002   0.153   5.136 -0.5960 -0.3814  1.9351
  184POPC  H13Y 7632   1.186   0.122   5.146  0.9079  0.5559  2.2461
  184POPC  C314 7633   1.121   0.307   5.051 -0.1248 -0.0629 -0.2998
  184POPC  H14X 7634   1.057   0.397   5.065  1.6568  1.0486  1.1574
  184POPC  H14Y 7635   1.092   0.262   4.954 -1.9194  0.1192  0.1181
  184POPC  C315 7636   1.260   0.361   5.040 -0.3973  0.1886 -0.1443
  184POPC  H15X 7637   1.323   0.271   5.027  0.4061  0.0977  3.2626
  184POPC  H15Y 7638   1.295   0.410   5.134  2.9407 -1.4946 -0.3763
  184POPC  C316 7639   1.268   0.445   4.916  0.7813 -0.0925 -0.0433
  184POPC  H16X 7640   1.198   0.531   4.917  1.1570  0.2132  0.2923
  184POPC  H16Y 7641   1.244   0.387   4.824  2.2029  2.4635 -2.1565
  184POPC  H16Z 7642   1.370   0.487   4.909  0.3739  1.6450  2.7966
  185POPC     N 7643   2.941   1.878   6.382  0.4743 -0.8933 -0.8644
  185POPC   C12 7644   2.837   1.931   6.280  0.9097  0.2448  0.8957
  185POPC  H12A 7645   2.863   2.035   6.267 -0.4068  0.3754 -0.9862
  185POPC  H12B 7646   2.741   1.929   6.329  0.1301  0.7192 -0.5663
  185POPC   C13 7647   2.947   1.956   6.510 -0.2104  0.2274 -0.2768
  185POPC  H13A 7648   2.850   1.952   6.557  0.2888 -2.2944  0.7470
  185POPC  H13B 7649   3.019   1.910   6.577  1.1022  1.9287 -0.4581
  185POPC  H13C 7650   2.964   2.060   6.486 -0.7019  0.3266 -0.2045
  185POPC   C14 7651   2.904   1.729   6.420  0.2233 -0.4768 -0.3500
  185POPC  H14A 7652   2.987   1.678   6.468  0.6799  1.8946  1.6175
  185POPC  H14B 7653   2.814   1.727   6.479 -1.2127 -1.9351 -2.4488
  185POPC  H14C 7654   2.884   1.677   6.328  1.4460  0.8006 -1.3805
  185POPC   C15 7655   3.081   1.875   6.314 -0.1617 -0.1692  0.2244
  185POPC  H15A 7656   3.104   1.976   6.286 -0.7557 -0.0285  0.2252
  185POPC  H15B 7657   3.082   1.811   6.226 -0.2399 -1.3965  1.0839
  185POPC  H15C 7658   3.155   1.849   6.388 -0.3454  2.3728  1.4010
  185POPC   C11 7659   2.806   1.855   6.147  0.0839 -1.0717  0.4062
  185POPC  H11A 7660   2.903   1.839   6.094  0.7462 -0.2186  1.3384
  185POPC  H11B 7661   2.743   1.918   6.081  1.0157 -1.4278 -0.8641
  185POPC     P 7662   2.593   1.709   6.176  0.1428  0.2821  0.0413
  185POPC   O13 7663   2.516   1.804   6.257 -0.0375  0.1110  0.3028
  185POPC   O14 7664   2.568   1.567   6.207 -0.7177  0.4462 -0.3082
  185POPC   O12 7665   2.747   1.732   6.180  0.2916 -0.4350  0.5329
  185POPC   O11 7666   2.557   1.746   6.032 -0.4680 -0.2275  0.0508
  185POPC    C1 7667   2.570   1.645   5.924  0.7759 -0.1025 -0.2761
  185POPC    HA 7668   2.487   1.656   5.850 -0.1877 -2.2696  0.4059
  185POPC    HB 7669   2.550   1.540   5.953  3.0090 -1.0289 -1.7610
  185POPC    C2 7670   2.696   1.643   5.837 -0.1784 -0.2729  0.1600
  185POPC    HS 7671   2.776   1.607   5.905  0.3100 -0.2973 -0.4151
  185POPC   O21 7672   2.719   1.773   5.780  0.0918  0.5530  0.5694
  185POPC   C21 7673   2.848   1.807   5.773 -0.0348 -0.2756 -0.7072
  185POPC   O22 7674   2.940   1.735   5.815  0.3681 -0.4046  0.0865
  185POPC   C22 7675   2.866   1.945   5.699 -0.1735  0.3630  0.3245
  185POPC   H2R 7676   2.915   2.009   5.775  1.3842  1.7959 -1.7734
  185POPC   H2S 7677   2.768   1.981   5.663  0.4937  0.9135 -1.0193
  185POPC    C3 7678   2.684   1.542   5.721  0.3402 -0.2292  0.6768
  185POPC    HX 7679   2.592   1.569   5.663  0.8590 -1.6107 -0.8764
  185POPC    HY 7680   2.661   1.444   5.766 -1.0182 -0.5358 -0.5944
  185POPC   O31 7681   2.793   1.556   5.631 -0.1945  0.5774 -0.1077
  185POPC   C31 7682   2.897   1.475   5.669 -0.6487 -0.0133  0.5130
  185POPC   O32 7683   2.908   1.429   5.781  0.4694 -0.0856 -0.3733
  185POPC   C32 7684   2.995   1.454   5.553  0.3699 -0.0787  0.2099
  185POPC   H2X 7685   3.030   1.555   5.520 -1.7229  0.6972  0.2147
  185POPC   H2Y 7686   2.941   1.408   5.468 -1.2532 -1.8523  2.1013
  185POPC   C23 7687   2.976   1.936   5.590 -0.4731  0.9165  0.1253
  185POPC   H3R 7688   3.061   1.871   5.621 -0.8304  0.2973 -0.1716
  185POPC   H3S 7689   3.015   2.040   5.580  0.6535  0.4160 -0.9687
  185POPC   C24 7690   2.911   1.902   5.458  0.3933 -0.0207  0.6910
  185POPC   H4R 7691   2.888   2.002   5.416  0.0732 -1.3655 -2.6351
  185POPC   H4S 7692   2.823   1.839   5.482  2.7539 -3.5742  0.8838
  185POPC   C25 7693   3.017   1.844   5.359 -0.5600 -0.5431  0.7567
  185POPC   H5R 7694   3.053   1.742   5.387  2.4293 -0.0976 -1.0821
  185POPC   H5S 7695   3.110   1.902   5.372 -0.8413  0.1576 -0.2844
  185POPC   C26 7696   2.957   1.847   5.218 -0.6084 -0.5937  0.5256
  185POPC   H6R 7697   2.900   1.940   5.198 -1.7070 -1.2756  0.3627
  185POPC   H6S 7698   2.879   1.767   5.219  0.2572 -1.4704  2.1005
  185POPC   C27 7699   3.056   1.815   5.101 -0.2295 -0.9547 -0.5169
  185POPC   H7R 7700   3.098   1.717   5.132  2.1791 -0.0916 -0.8036
  185POPC   H7S 7701   3.132   1.896   5.100 -2.1556  0.9402 -0.0149
  185POPC   C28 7702   2.998   1.798   4.963 -0.1891  0.2562  0.1644
  185POPC   H8R 7703   3.068   1.781   4.879  0.9910  1.9863  0.7426
  185POPC   H8S 7704   2.945   1.894   4.942  1.6586  1.3624  0.3245
  185POPC   C29 7705   2.912   1.678   4.964 -0.3391 -0.0091 -0.4000
  185POPC   H91 7706   2.952   1.587   5.013 -0.7677  0.8343  1.6129
  185POPC  C210 7707   2.791   1.679   4.910 -0.1912  0.3301 -0.6461
  185POPC  H101 7708   2.749   1.579   4.895  1.3401 -0.5159  0.4867
  185POPC  C211 7709   2.725   1.799   4.854  0.4186  0.5094 -0.4142
  185POPC  H11R 7710   2.735   1.804   4.743  0.3410 -1.4744 -0.5528
  185POPC  H11S 7711   2.759   1.899   4.887  0.0405  0.3076  0.6112
  185POPC  C212 7712   2.568   1.792   4.885 -0.2919  0.4148  0.8167
  185POPC  H12R 7713   2.530   1.894   4.861  0.4630  0.8205  1.2801
  185POPC  H12S 7714   2.553   1.766   4.992  1.6665 -2.2752  0.5364
  185POPC  C213 7715   2.489   1.705   4.790  0.5167  0.3192 -0.5095
  185POPC  H13R 7716   2.535   1.605   4.770 -0.9265 -0.5094  0.1396
  185POPC  H13S 7717   2.487   1.756   4.691  1.6491  0.8723 -0.2570
  185POPC  C214 7718   2.348   1.667   4.836  0.0052 -0.2853 -0.3871
  185POPC  H14R 7719   2.352   1.651   4.946 -0.6299 -0.5389 -0.3975
  185POPC  H14S 7720   2.314   1.577   4.781  1.1346  0.5546 -2.5845
  185POPC  C215 7721   2.237   1.768   4.811 -0.1936 -0.7342  0.2497
  185POPC  H15R 7722   2.265   1.865   4.858 -0.2636  0.2103 -1.5770
  185POPC  H15S 7723   2.146   1.726   4.857 -1.7885  0.4272 -1.6987
  185POPC  C216 7724   2.229   1.806   4.662 -0.4090 -0.1494 -0.1002
  185POPC  H16R 7725   2.272   1.728   4.596  0.9659  1.9928 -1.8594
  185POPC  H16S 7726   2.290   1.897   4.647 -0.7132 -0.4167 -4.0047
  185POPC  C217 7727   2.086   1.843   4.615  0.0273 -0.4086  0.0259
  185POPC  H17R 7728   2.047   1.927   4.676 -0.3169 -0.8934  0.4873
  185POPC  H17S 7729   2.034   1.745   4.630 -0.9095  0.3409  2.1628
  185POPC  C218 7730   2.079   1.874   4.464  0.3834 -0.2594 -0.1065
  185POPC  H18R 7731   2.151   1.956   4.442  1.0051 -0.2107  1.9361
  185POPC  H18S 7732   1.975   1.900   4.434  0.3393 -1.4658 -1.0551
  185POPC  H18T 7733   2.110   1.784   4.408  2.2782  1.0121 -1.1893
  185POPC   C33 7734   3.115   1.360   5.587  0.0190  0.7019  0.2176
  185POPC   H3X 7735   3.064   1.271   5.629  0.8912 -0.0809 -0.3315
  185POPC   H3Y 7736   3.168   1.411   5.671 -0.6523  3.3447 -0.8548
  185POPC   C34 7737   3.206   1.334   5.477  0.0235  0.0193  0.0975
  185POPC   H4X 7738   3.265   1.428   5.469  1.6737 -1.0269 -0.4155
  185POPC   H4Y 7739   3.151   1.321   5.382  3.1393 -1.2423 -1.6710
  185POPC   C35 7740   3.317   1.222   5.500  1.2140  0.0949 -0.8801
  185POPC   H5X 7741   3.270   1.142   5.561  1.3796  0.6068 -0.0635
  185POPC   H5Y 7742   3.391   1.264   5.572  0.3806 -1.7977  1.1950
  185POPC   C36 7743   3.378   1.172   5.369  0.2422  0.9948  0.4885
  185POPC   H6X 7744   3.428   1.258   5.320  1.1681 -0.5613 -1.4588
  185POPC   H6Y 7745   3.293   1.152   5.300 -0.2859  0.1917  1.3352
  185POPC   C37 7746   3.462   1.051   5.392  0.4976  0.9807 -0.1919
  185POPC   H7X 7747   3.540   1.068   5.469  1.4460 -0.4868 -0.7940
  185POPC   H7Y 7748   3.513   1.021   5.298  0.5095  3.0802 -0.9216
  185POPC   C38 7749   3.369   0.934   5.425 -0.2810 -1.5781  0.4007
  185POPC   H8X 7750   3.282   0.945   5.357  1.1035  2.5912 -1.0218
  185POPC   H8Y 7751   3.341   0.933   5.533  0.9357 -2.0341  0.7322
  185POPC   C39 7752   3.427   0.800   5.378  0.4516  0.2256  0.6573
  185POPC   H9X 7753   3.527   0.773   5.416  0.4014 -0.3188  0.4041
  185POPC   H9Y 7754   3.437   0.804   5.268  1.2342 -1.6319  0.6321
  185POPC  C310 7755   3.330   0.691   5.401 -0.4710 -0.3495 -0.1662
  185POPC  H10X 7756   3.239   0.699   5.338 -2.2335 -1.5278  2.0962
  185POPC  H10Y 7757   3.287   0.688   5.503 -0.1916  1.7841  0.0469
  185POPC  C311 7758   3.403   0.561   5.380  0.1709 -0.0441 -0.4437
  185POPC  H11X 7759   3.488   0.551   5.451  0.0596 -1.2604 -0.4484
  185POPC  H11Y 7760   3.448   0.552   5.279 -2.1676 -3.3898 -1.3810
  185POPC  C312 7761   3.320   0.436   5.403  0.7017 -0.8887  0.5410
  185POPC  H12X 7762   3.235   0.449   5.333  0.7198  1.2729  0.8447
  185POPC  H12Y 7763   3.272   0.439   5.503  1.6898 -0.6658  1.0163
  185POPC  C313 7764   3.385   0.305   5.382  0.8106  0.1842  0.3408
  185POPC  H13X 7765   3.474   0.285   5.445  0.0089 -0.0187  1.4339
  185POPC  H13Y 7766   3.414   0.320   5.275 -0.5116 -0.6451 -0.1598
  185POPC  C314 7767   3.278   0.192   5.391 -0.3658 -0.9465  0.8229
  185POPC  H14X 7768   3.208   0.203   5.306  1.5744 -0.9446 -0.8651
  185POPC  H14Y 7769   3.231   0.202   5.491  1.7478 -1.4163  1.9402
  185POPC  C315 7770   3.341   0.055   5.383  0.0227 -0.3675 -0.7139
  185POPC  H15X 7771   3.402   0.036   5.474 -1.3399 -0.5386  0.1834
  185POPC  H15Y 7772   3.410   0.060   5.296 -1.7164 -1.1775 -2.1886
  185POPC  C316 7773   3.228   6.404   5.375 -0.8880  0.1706  0.7422
  185POPC  H16X 7774   3.168   6.434   5.287 -1.6087 -2.0532  0.4037
  185POPC  H16Y 7775   3.161   6.400   5.463 -1.6810 -0.0827  0.1379
  185POPC  H16Z 7776   3.263   6.299   5.366  2.5895  1.1981  0.6751
  186POPC     N 7777   4.296   1.417   6.667 -0.5567 -0.3777 -0.0518
  186POPC   C12 7778   4.261   1.382   6.522  0.5240 -0.4713 -0.3677
  186POPC  H12A 7779   4.283   1.278   6.505  1.7474 -0.0699 -1.3999
  186POPC  H12B 7780   4.336   1.429   6.460  0.1806 -0.8817 -1.1120
  186POPC   C13 7781   4.430   1.358   6.710 -0.2588 -0.4080 -0.2762
  186POPC  H13A 7782   4.505   1.381   6.636  1.0930  0.7842  1.3854
  186POPC  H13B 7783   4.472   1.406   6.797  0.9352 -0.4028 -0.8436
  186POPC  H13C 7784   4.420   1.252   6.731 -0.5868 -0.5360 -1.0626
  186POPC   C14 7785   4.306   1.569   6.674 -0.7546 -0.6643  0.1619
  186POPC  H14A 7786   4.368   1.611   6.596  1.7924  0.1526  2.4887
  186POPC  H14B 7787   4.204   1.604   6.662 -0.5552  0.5448  1.7915
  186POPC  H14C 7788   4.349   1.595   6.769 -0.9836  0.7202 -0.0935
  186POPC   C15 7789   4.193   1.363   6.759 -0.0876  0.2440 -0.3882
  186POPC  H15A 7790   4.096   1.403   6.734 -1.3679 -2.1536  0.4456
  186POPC  H15B 7791   4.224   1.388   6.859  0.1529  1.2854 -0.7181
  186POPC  H15C 7792   4.182   1.255   6.753 -1.4897  0.2874  0.8884
  186POPC   C11 7793   4.116   1.415   6.466  0.6837 -0.2649 -0.0126
  186POPC  H11A 7794   4.064   1.352   6.541  3.0326 -1.7703  0.4105
  186POPC  H11B 7795   4.096   1.382   6.362 -0.3361  1.5650 -0.4467
  186POPC     P 7796   3.937   1.614   6.514  0.2192  0.1150  0.4151
  186POPC   O13 7797   3.951   1.703   6.634 -0.5468 -0.1208 -0.2839
  186POPC   O14 7798   3.845   1.498   6.534  0.0307  0.0033 -0.2914
  186POPC   O12 7799   4.079   1.557   6.481 -0.4713  0.0818 -0.3909
  186POPC   O11 7800   3.887   1.693   6.388  0.1666 -0.5835  0.1933
  186POPC    C1 7801   3.880   1.623   6.264 -0.1095  0.2217 -0.1066
  186POPC    HA 7802   3.941   1.531   6.257  0.5134  0.4956  1.2728
  186POPC    HB 7803   3.908   1.694   6.183  1.1962 -1.4087 -1.1613
  186POPC    C2 7804   3.735   1.569   6.240  0.3485 -0.6689  0.0021
  186POPC    HS 7805   3.724   1.502   6.327  3.2325 -1.4537 -0.1490
  186POPC   O21 7806   3.735   1.491   6.117 -0.6811 -0.0208  0.0491
  186POPC   C21 7807   3.633   1.405   6.106 -0.0922  0.9198  0.4437
  186POPC   O22 7808   3.555   1.373   6.195 -0.1648  0.3205 -0.0388
  186POPC   C22 7809   3.638   1.320   5.972 -0.0660 -0.5504  0.3995
  186POPC   H2R 7810   3.532   1.289   5.967  0.0548 -1.0073  0.6805
  186POPC   H2S 7811   3.706   1.238   6.001 -0.4007 -1.1816 -0.5695
  186POPC    C3 7812   3.627   1.685   6.242  0.1751 -0.0141 -0.0835
  186POPC    HX 7813   3.627   1.718   6.349 -0.2857 -1.4034  0.3631
  186POPC    HY 7814   3.528   1.640   6.218 -0.1994 -0.0448  1.4012
  186POPC   O31 7815   3.657   1.797   6.167 -0.1786 -0.2244 -0.2314
  186POPC   C31 7816   3.635   1.791   6.038 -0.2366 -0.4149 -0.3625
  186POPC   O32 7817   3.565   1.701   5.990 -0.1930  0.4558  0.3515
  186POPC   C32 7818   3.707   1.907   5.965  0.8794  0.4509 -0.6642
  186POPC   H2X 7819   3.802   1.925   6.019  1.5698 -1.6234 -1.1238
  186POPC   H2Y 7820   3.635   1.992   5.959  0.4495  0.2142  0.7119
  186POPC   C23 7821   3.684   1.392   5.845  0.1179  0.0559  0.6584
  186POPC   H3R 7822   3.789   1.424   5.864  0.2572 -1.1881  2.1362
  186POPC   H3S 7823   3.615   1.472   5.810 -2.3368 -1.4677  1.7556
  186POPC   C24 7824   3.676   1.305   5.718 -0.0114  0.6257  0.7516
  186POPC   H4R 7825   3.571   1.278   5.694  0.3312 -0.1918  0.0997
  186POPC   H4S 7826   3.728   1.209   5.739 -0.3952  0.2815  0.1467
  186POPC   C25 7827   3.747   1.384   5.606 -0.1193  0.3909 -0.3831
  186POPC   H5R 7828   3.856   1.371   5.626  0.0707  0.2337 -1.4371
  186POPC   H5S 7829   3.720   1.491   5.605  0.6957  0.6170  0.5676
  186POPC   C26 7830   3.705   1.329   5.467 -0.3556 -0.4017 -0.2961
  186POPC   H6R 7831   3.597   1.351   5.460 -0.4060 -0.2013  0.8138
  186POPC   H6S 7832   3.724   1.219   5.461  2.9523 -0.2514  3.0382
  186POPC   C27 7833   3.788   1.397   5.354 -0.0646  0.2152 -0.2597
  186POPC   H7R 7834   3.784   1.501   5.392  1.2923  0.1535  0.1017
  186POPC   H7S 7835   3.744   1.383   5.253  0.0541  2.1626 -0.6102
  186POPC   C28 7836   3.939   1.350   5.357 -1.2354  0.2826 -0.0050
  186POPC   H8R 7837   3.948   1.244   5.326 -0.6257 -1.2010  4.5352
  186POPC   H8S 7838   3.957   1.353   5.467 -1.1858 -2.8840  0.1494
  186POPC   C29 7839   4.034   1.443   5.281 -0.4446  0.6686  0.7815
  186POPC   H91 7840   4.036   1.434   5.172 -1.8658 -0.7221  0.8344
  186POPC  C210 7841   4.097   1.544   5.332  0.8191  0.7194  0.2308
  186POPC  H101 7842   4.161   1.605   5.268  0.1044 -0.4281 -1.6521
  186POPC  C211 7843   4.089   1.605   5.474  0.1938 -0.2758  0.6624
  186POPC  H11R 7844   4.183   1.581   5.529  0.0398 -2.3465  0.1118
  186POPC  H11S 7845   4.001   1.563   5.528 -1.7974  2.1299 -0.5114
  186POPC  C212 7846   4.066   1.758   5.463 -0.1343 -0.2350 -0.1749
  186POPC  H12R 7847   4.149   1.808   5.409  0.6457  0.3600  1.4898
  186POPC  H12S 7848   4.056   1.805   5.564  0.3147 -0.6353  0.0626
  186POPC  C213 7849   3.935   1.797   5.388  0.4905 -0.0954 -0.1809
  186POPC  H13R 7850   3.854   1.792   5.464 -0.5870  2.2735 -1.0749
  186POPC  H13S 7851   3.917   1.731   5.301 -0.0528 -1.6109  1.0433
  186POPC  C214 7852   3.953   1.940   5.329  0.4084 -0.6548  0.0555
  186POPC  H14R 7853   4.052   1.930   5.279  1.4846 -0.3682  2.0525
  186POPC  H14S 7854   3.974   2.002   5.419 -1.3075 -2.0467  1.4770
  186POPC  C215 7855   3.833   1.992   5.248 -0.4575 -0.4466 -0.4430
  186POPC  H15R 7856   3.751   2.000   5.323  0.2561 -1.2837  0.4616
  186POPC  H15S 7857   3.820   1.929   5.158  0.8687 -1.8507  0.2974
  186POPC  C216 7858   3.857   2.135   5.203  0.1214  0.3033 -0.2955
  186POPC  H16R 7859   3.858   2.211   5.284  0.6346  0.5316 -0.5112
  186POPC  H16S 7860   3.775   2.176   5.142  0.7666  1.2004 -0.5705
  186POPC  C217 7861   3.991   2.163   5.134  0.1176 -0.5674  0.5414
  186POPC  H17R 7862   4.005   2.088   5.053  1.1891 -1.7285  1.7615
  186POPC  H17S 7863   4.069   2.134   5.208  0.7155 -0.2229  0.0552
  186POPC  C218 7864   3.994   2.308   5.100 -0.3029  0.3640  0.4125
  186POPC  H18R 7865   4.096   2.350   5.094 -0.0827 -0.2052  0.1750
  186POPC  H18S 7866   3.935   2.369   5.173 -2.4619 -0.4889 -0.5487
  186POPC  H18T 7867   3.948   2.324   5.000 -0.2431 -1.7913 -0.0097
  186POPC   C33 7868   3.740   1.874   5.814 -0.0016 -0.3836  0.0523
  186POPC   H3X 7869   3.652   1.869   5.746  1.0238  0.6664 -1.4147
  186POPC   H3Y 7870   3.792   1.777   5.824 -0.0976 -0.3634  0.7780
  186POPC   C34 7871   3.844   1.977   5.758  0.7870  0.8724  0.5623
  186POPC   H4X 7872   3.804   2.080   5.760 -1.2491  0.2838 -2.5929
  186POPC   H4Y 7873   3.863   1.961   5.650  2.0326  2.5179  0.5058
  186POPC   C35 7874   3.986   1.962   5.831 -0.1290  0.0083  0.0070
  186POPC   H5X 7875   4.058   1.909   5.764  0.4330 -0.2373  0.7840
  186POPC   H5Y 7876   3.970   1.885   5.910 -1.6780 -0.3576 -0.6345
  186POPC   C36 7877   4.050   2.094   5.864 -0.5016  0.5496  0.3954
  186POPC   H6X 7878   4.141   2.072   5.924 -0.1700  2.2088  0.5449
  186POPC   H6Y 7879   3.990   2.137   5.947 -0.4765  1.0644  0.1535
  186POPC   C37 7880   4.065   2.194   5.759  0.4515  0.5033  1.0008
  186POPC   H7X 7881   4.114   2.287   5.796  0.8561  1.5271 -1.8214
  186POPC   H7Y 7882   3.966   2.236   5.729  0.8917 -0.4062 -2.0644
  186POPC   C38 7883   4.128   2.136   5.633  0.2658 -0.1875 -0.1460
  186POPC   H8X 7884   4.084   2.040   5.600  1.4630 -0.6515 -0.4589
  186POPC   H8Y 7885   4.224   2.107   5.682 -0.4427 -2.8680 -0.2268
  186POPC   C39 7886   4.146   2.231   5.506  0.0612 -0.8081 -0.4023
  186POPC   H9X 7887   4.041   2.237   5.472 -0.5400 -3.5769  0.6902
  186POPC   H9Y 7888   4.208   2.175   5.433 -2.1072 -2.2878 -1.2115
  186POPC  C310 7889   4.213   2.365   5.529 -0.1572 -1.0216 -0.0176
  186POPC  H10X 7890   4.317   2.350   5.565  0.5078  2.5532 -0.0640
  186POPC  H10Y 7891   4.155   2.418   5.608  1.0222  0.6244 -0.1941
  186POPC  C311 7892   4.210   2.447   5.395  0.1588 -0.1241 -0.7484
  186POPC  H11X 7893   4.221   2.556   5.414 -1.5410  0.1802 -1.3429
  186POPC  H11Y 7894   4.113   2.426   5.345 -0.7167 -1.0766  1.2155
  186POPC  C312 7895   4.323   2.399   5.299  0.5532  0.3700 -1.1752
  186POPC  H12X 7896   4.285   2.305   5.254  0.4863 -0.4467  0.5103
  186POPC  H12Y 7897   4.414   2.378   5.358 -0.6950 -0.5372  0.5379
  186POPC  C313 7898   4.349   2.508   5.193  0.2708  0.1071 -0.4990
  186POPC  H13X 7899   4.375   2.612   5.223 -1.9457  1.2330 -2.1648
  186POPC  H13Y 7900   4.255   2.510   5.134  0.9576 -1.1936 -1.6954
  186POPC  C314 7901   4.458   2.459   5.097  0.5436  0.1723 -0.0357
  186POPC  H14X 7902   4.424   2.357   5.067 -1.5780  0.8579 -0.1329
  186POPC  H14Y 7903   4.554   2.453   5.152 -0.9434 -1.1527  2.6269
  186POPC  C315 7904   4.458   2.536   4.966 -0.0823  0.7072  0.8138
  186POPC  H15X 7905   4.485   2.642   4.988  0.7329  0.3716  1.4731
  186POPC  H15Y 7906   4.352   2.532   4.935  0.2274  1.0679 -0.3380
  186POPC  C316 7907   4.546   2.456   4.868 -0.5895  0.6614 -0.4069
  186POPC  H16X 7908   4.536   2.348   4.887 -1.2545  0.6942 -0.5494
  186POPC  H16Y 7909   4.647   2.504   4.872 -0.9640  1.5799 -1.3556
  186POPC  H16Z 7910   4.524   2.474   4.761  4.2585  1.0723 -1.6004
  187POPC     N 7911   0.726   2.059   6.603  0.0656 -0.3572 -0.0845
  187POPC   C12 7912   0.651   2.119   6.479 -0.0201  0.6071  0.3226
  187POPC  H12A 7913   0.625   2.223   6.490  1.5453  1.0050  0.4499
  187POPC  H12B 7914   0.551   2.078   6.470 -0.8270  2.1371  1.8851
  187POPC   C13 7915   0.655   2.091   6.731  0.3240 -0.2666 -0.2969
  187POPC  H13A 7916   0.564   2.033   6.735  1.6298 -2.3405  1.2382
  187POPC  H13B 7917   0.716   2.055   6.812 -0.6598  0.7949  0.9658
  187POPC  H13C 7918   0.653   2.198   6.746 -2.0270 -0.1555 -0.8887
  187POPC   C14 7919   0.730   1.910   6.589 -0.1015 -0.4214  0.6277
  187POPC  H14A 7920   0.772   1.900   6.490 -1.1759  0.7452  0.0273
  187POPC  H14B 7921   0.790   1.875   6.671  1.1088 -0.6169 -0.3003
  187POPC  H14C 7922   0.633   1.863   6.591 -0.1468 -0.5195  4.7415
  187POPC   C15 7923   0.865   2.107   6.614 -0.5167  0.7426 -0.0436
  187POPC  H15A 7924   0.910   2.077   6.708  0.0349 -0.6983 -0.7505
  187POPC  H15B 7925   0.864   2.215   6.612  0.7045  0.7578 -0.3001
  187POPC  H15C 7926   0.929   2.078   6.532 -1.1841  1.1512 -0.7220
  187POPC   C11 7927   0.722   2.110   6.340 -0.0501  0.3865  0.0020
  187POPC  H11A 7928   0.822   2.156   6.348 -0.1425  0.5340  0.3453
  187POPC  H11B 7929   0.656   2.171   6.275 -1.5524  0.3007  1.3861
  187POPC     P 7930   0.611   1.904   6.237 -0.0189  0.2549 -0.0173
  187POPC   O13 7931   0.505   1.894   6.345  0.3662 -0.1176  0.4056
  187POPC   O14 7932   0.652   1.778   6.180 -0.4143 -0.3277  0.0358
  187POPC   O12 7933   0.739   1.969   6.303  0.3580  0.1176  0.1383
  187POPC   O11 7934   0.573   2.007   6.126  0.0269  0.4900  0.7839
  187POPC    C1 7935   0.645   2.012   6.003 -0.5040 -0.1630 -0.0645
  187POPC    HA 7936   0.625   1.924   5.938 -0.3696 -1.2941  1.3820
  187POPC    HB 7937   0.752   1.987   6.021 -0.3560 -0.4712 -1.3071
  187POPC    C2 7938   0.640   2.144   5.924  0.0054 -0.2076 -0.5049
  187POPC    HS 7939   0.540   2.172   5.886 -0.5401 -1.2526  0.1091
  187POPC   O21 7940   0.732   2.136   5.818  0.1364  0.2222  0.8947
  187POPC   C21 7941   0.704   2.074   5.702 -0.0092  0.3079 -0.0471
  187POPC   O22 7942   0.601   2.012   5.681  0.3920 -0.0015 -0.2194
  187POPC   C22 7943   0.825   2.081   5.604 -0.7827 -0.0321 -0.0634
  187POPC   H2R 7944   0.879   1.984   5.595 -1.6357 -0.7287  1.8184
  187POPC   H2S 7945   0.892   2.162   5.640  0.1932 -1.3203  1.1596
  187POPC    C3 7946   0.687   2.260   6.006  0.7230  0.3061 -0.1413
  187POPC    HX 7947   0.773   2.226   6.067 -0.9671 -2.2332  1.0334
  187POPC    HY 7948   0.603   2.280   6.076 -0.3152  3.6813 -2.1234
  187POPC   O31 7949   0.710   2.384   5.933 -0.0761  0.0084 -0.2349
  187POPC   C31 7950   0.835   2.407   5.908 -0.3197  0.1581  0.2379
  187POPC   O32 7951   0.931   2.338   5.949 -0.5603  0.0661  0.4307
  187POPC   C32 7952   0.840   2.534   5.825 -0.3281  0.4533 -0.2359
  187POPC   H2X 7953   0.946   2.568   5.827  0.0138 -0.6203  0.6462
  187POPC   H2Y 7954   0.795   2.617   5.882  1.4941  1.1156  0.3050
  187POPC   C23 7955   0.777   2.108   5.461  0.2888 -0.1304 -0.1027
  187POPC   H3R 7956   0.700   2.036   5.427  0.2370 -0.2070  0.1832
  187POPC   H3S 7957   0.863   2.095   5.392  0.4659 -1.6953  0.3899
  187POPC   C24 7958   0.708   2.240   5.422 -0.3587 -0.1601 -0.3066
  187POPC   H4R 7959   0.779   2.324   5.440 -0.4477 -0.1070 -0.2050
  187POPC   H4S 7960   0.612   2.261   5.473 -0.5957 -2.3343  0.2220
  187POPC   C25 7961   0.671   2.258   5.280  0.0085 -0.1837  0.1604
  187POPC   H5R 7962   0.640   2.362   5.255  1.3527  0.2109  0.0723
  187POPC   H5S 7963   0.591   2.189   5.247 -0.4029  0.3121  0.1100
  187POPC   C26 7964   0.790   2.244   5.182  0.3742 -0.6917  0.1664
  187POPC   H6R 7965   0.820   2.138   5.187  1.4098 -0.3386  3.9617
  187POPC   H6S 7966   0.873   2.297   5.233 -2.9417  1.7910  3.5359
  187POPC   C27 7967   0.747   2.280   5.031 -0.0642  0.4075  0.0952
  187POPC   H7R 7968   0.681   2.370   5.029 -0.1529  0.3362 -1.8140
  187POPC   H7S 7969   0.683   2.203   4.984  0.9107  0.0658 -0.7012
  187POPC   C28 7970   0.872   2.301   4.936 -0.2912  0.9857 -0.3005
  187POPC   H8R 7971   0.948   2.370   4.980  1.8881 -0.0510 -2.2448
  187POPC   H8S 7972   0.834   2.356   4.847 -5.0011 -2.2768 -0.6359
  187POPC   C29 7973   0.920   2.167   4.886  0.6611 -0.7072  0.5456
  187POPC   H91 7974   0.864   2.121   4.803  0.2338 -1.0655  1.0194
  187POPC  C210 7975   1.027   2.109   4.944 -0.5701  0.1955 -0.1250
  187POPC  H101 7976   1.077   2.019   4.905 -0.0731 -0.2721  1.5068
  187POPC  C211 7977   1.120   2.153   5.056  0.6692  0.4517  0.0010
  187POPC  H11R 7978   1.125   2.069   5.130  1.1053  0.2770 -0.2221
  187POPC  H11S 7979   1.075   2.242   5.105  0.5383  0.9195 -0.9578
  187POPC  C212 7980   1.266   2.174   5.018 -0.0992  0.1020  0.3633
  187POPC  H12R 7981   1.272   2.266   4.956  0.2041  0.2730  0.6437
  187POPC  H12S 7982   1.303   2.094   4.951  0.2584 -0.2134  0.9303
  187POPC  C213 7983   1.371   2.184   5.135 -0.0419  0.5723 -0.0926
  187POPC  H13R 7984   1.361   2.280   5.191 -0.4357  0.3144  0.2856
  187POPC  H13S 7985   1.469   2.206   5.088 -0.3582 -1.7716 -2.0374
  187POPC  C214 7986   1.360   2.068   5.231 -0.1623  0.5023 -0.1243
  187POPC  H14R 7987   1.363   1.979   5.164 -0.6317  0.3611  0.0365
  187POPC  H14S 7988   1.265   2.063   5.288 -0.0852 -0.6747 -0.0594
  187POPC  C215 7989   1.476   2.062   5.341  0.2435  0.1644 -1.0640
  187POPC  H15R 7990   1.475   2.155   5.402 -2.2450 -1.5115  1.7227
  187POPC  H15S 7991   1.573   2.064   5.286 -0.1418  0.6580 -1.7451
  187POPC  C216 7992   1.473   1.948   5.444 -0.5568 -0.3698  0.7457
  187POPC  H16R 7993   1.445   1.977   5.548  1.3538 -2.1098  1.8430
  187POPC  H16S 7994   1.577   1.913   5.460 -0.5312 -0.1064  1.1716
  187POPC  C217 7995   1.396   1.826   5.389 -0.7465  0.1938 -0.4302
  187POPC  H17R 7996   1.418   1.819   5.281 -1.3689  1.4159 -0.6635
  187POPC  H17S 7997   1.286   1.846   5.391 -0.9265 -0.7763  0.7920
  187POPC  C218 7998   1.417   1.697   5.470  0.4481  0.9007 -0.9615
  187POPC  H18R 7999   1.394   1.701   5.579  0.6132  1.6556 -0.9511
  187POPC  H18S 8000   1.525   1.672   5.467  0.1974 -1.0426  1.8139
  187POPC  H18T 8001   1.362   1.604   5.445  2.5253 -0.6411 -0.0853
  187POPC   C33 8002   0.792   2.526   5.679  0.1979  0.1355 -0.3610
  187POPC   H3X 8003   0.689   2.487   5.683 -0.0496  0.8515  0.8640
  187POPC   H3Y 8004   0.847   2.442   5.632 -0.3267 -0.4515  0.0722
  187POPC   C34 8005   0.818   2.653   5.604 -0.0963 -1.0462  0.1801
  187POPC   H4X 8006   0.925   2.681   5.615 -0.9658  2.9351 -0.0746
  187POPC   H4Y 8007   0.769   2.741   5.651  0.5765 -0.6430  0.1413
  187POPC   C35 8008   0.767   2.644   5.457 -0.7696  0.1035 -0.4678
  187POPC   H5X 8009   0.663   2.612   5.476 -1.1823  1.7648  0.2223
  187POPC   H5Y 8010   0.816   2.563   5.398 -1.6465 -1.5754  0.9932
  187POPC   C36 8011   0.774   2.783   5.387 -0.3795 -0.5271  0.3557
  187POPC   H6X 8012   0.879   2.819   5.379 -0.5672 -0.3396 -1.8087
  187POPC   H6Y 8013   0.712   2.854   5.447  2.2834  1.1267  1.3364
  187POPC   C37 8014   0.716   2.781   5.244 -1.0829  0.1422 -0.5397
  187POPC   H7X 8015   0.693   2.884   5.209 -1.2970  0.8309  1.4811
  187POPC   H7Y 8016   0.625   2.716   5.245 -2.2648  1.7198  0.9666
  187POPC   C38 8017   0.812   2.715   5.148 -0.0265 -0.2570  0.1837
  187POPC   H8X 8018   0.864   2.619   5.168  2.0600 -0.2116 -3.9267
  187POPC   H8Y 8019   0.886   2.795   5.126 -0.9869  0.3044 -1.1112
  187POPC   C39 8020   0.719   2.700   5.019  0.0207 -0.2249 -0.1527
  187POPC   H9X 8021   0.690   2.805   4.999  2.7703  1.2955  2.8972
  187POPC   H9Y 8022   0.633   2.637   5.052  2.3123 -2.6456  1.7129
  187POPC  C310 8023   0.791   2.649   4.896  0.4600 -0.7474  1.1826
  187POPC  H10X 8024   0.825   2.543   4.895  0.3835 -0.7748  1.4741
  187POPC  H10Y 8025   0.888   2.703   4.887 -0.4076  0.5762 -0.9845
  187POPC  C311 8026   0.713   2.678   4.762 -0.5587  0.1847 -0.0706
  187POPC  H11X 8027   0.740   2.784   4.741  3.6248 -0.8492 -0.9280
  187POPC  H11Y 8028   0.607   2.649   4.773 -0.5472  0.5019  0.9307
  187POPC  C312 8029   0.763   2.600   4.636  0.2155 -1.1219 -0.5702
  187POPC  H12X 8030   0.768   2.492   4.662  0.1105 -0.7502  1.0767
  187POPC  H12Y 8031   0.870   2.623   4.618 -0.0766  3.3289  1.9062
  187POPC  C313 8032   0.667   2.621   4.520  0.3101  0.3329  0.7741
  187POPC  H13X 8033   0.655   2.731   4.513  1.3948  0.4088 -0.1969
  187POPC  H13Y 8034   0.566   2.577   4.538  0.6846 -1.4744 -1.1743
  187POPC  C314 8035   0.710   2.553   4.387  0.0783  0.3554 -0.0044
  187POPC  H14X 8036   0.722   2.447   4.418  0.2808  0.1384 -0.7975
  187POPC  H14Y 8037   0.816   2.583   4.374  0.9294 -1.6382  1.7166
  187POPC  C315 8038   0.613   2.574   4.274 -0.0935 -0.0255 -0.7247
  187POPC  H15X 8039   0.625   2.678   4.237  0.0737  0.3116  0.2477
  187POPC  H15Y 8040   0.506   2.580   4.301 -0.4532  1.4397 -2.2620
  187POPC  C316 8041   0.625   2.474   4.148 -0.1135  0.0269 -0.5002
  187POPC  H16X 8042   0.726   2.496   4.109 -0.2959  2.9565  0.4242
  187POPC  H16Y 8043   0.542   2.501   4.079 -0.6508  0.2612  0.2249
  187POPC  H16Z 8044   0.621   2.371   4.188  0.6260  0.2003  0.0318
  188POPC     N 8045   3.121   2.458   6.813 -0.8587 -0.1368 -0.5257
  188POPC   C12 8046   3.124   2.519   6.675 -0.5023  0.1351  0.1060
  188POPC  H12A 8047   3.181   2.460   6.605 -0.0224  1.2266 -0.4424
  188POPC  H12B 8048   3.180   2.610   6.687  0.6025 -0.6528  1.2273
  188POPC   C13 8049   3.263   2.414   6.855  0.0265 -0.0915  0.1299
  188POPC  H13A 8050   3.256   2.366   6.952  1.1588 -0.3786  0.0808
  188POPC  H13B 8051   3.303   2.331   6.800 -0.7747 -1.4361  1.5083
  188POPC  H13C 8052   3.331   2.498   6.857 -0.9221  0.7858 -1.8050
  188POPC   C14 8053   3.071   2.565   6.907 -0.2766  0.1564  1.1776
  188POPC  H14A 8054   3.094   2.532   7.007  2.4027  0.1513  0.6372
  188POPC  H14B 8055   3.119   2.656   6.874  0.3424 -0.5725 -0.0124
  188POPC  H14C 8056   2.966   2.582   6.889  0.4499  1.9707 -2.2413
  188POPC   C15 8057   3.035   2.338   6.812  0.1321 -0.4715 -0.1144
  188POPC  H15A 8058   3.079   2.255   6.759 -2.4303 -1.7981 -0.2890
  188POPC  H15B 8059   2.940   2.366   6.769  0.8243  1.6380 -0.4069
  188POPC  H15C 8060   3.010   2.305   6.911 -2.1746 -0.2161 -0.5539
  188POPC   C11 8061   2.992   2.553   6.605  0.5042  0.4808 -0.5292
  188POPC  H11A 8062   3.017   2.624   6.524 -0.6675  1.6496  0.1094
  188POPC  H11B 8063   2.939   2.624   6.671 -1.2399 -0.0291 -1.3083
  188POPC     P 8064   2.960   2.360   6.431 -0.1537 -0.0625 -0.2437
  188POPC   O13 8065   2.837   2.314   6.365 -0.1455  0.1353 -0.2732
  188POPC   O14 8066   3.051   2.253   6.475 -0.0945  0.2896  0.6596
  188POPC   O12 8067   2.920   2.440   6.554  0.1661  0.0560 -0.4872
  188POPC   O11 8068   3.041   2.454   6.342  0.3978 -0.2844  0.5157
  188POPC    C1 8069   2.980   2.536   6.240 -0.3331 -0.1418  0.4439
  188POPC    HA 8070   3.057   2.599   6.191  0.0250 -0.9273 -0.0298
  188POPC    HB 8071   2.889   2.591   6.271  0.2131  0.1682  1.5418
  188POPC    C2 8072   2.945   2.443   6.119 -0.2001  0.1000 -0.0331
  188POPC    HS 8073   2.860   2.375   6.142 -0.4037  0.1624 -0.5927
  188POPC   O21 8074   3.059   2.372   6.080 -0.4200  0.2975 -0.1391
  188POPC   C21 8075   3.032   2.259   6.014 -0.3968 -0.2176 -0.3059
  188POPC   O22 8076   2.922   2.212   6.003 -0.5119  0.0311  0.5605
  188POPC   C22 8077   3.160   2.203   5.957  0.2740  0.6060  0.1878
  188POPC   H2R 8078   3.161   2.100   5.999  1.0460  0.6692  0.3383
  188POPC   H2S 8079   3.247   2.258   5.997  0.3135  0.9327 -0.3397
  188POPC    C3 8080   2.888   2.513   5.985 -0.2171  0.1703 -0.0752
  188POPC    HX 8081   2.848   2.433   5.918  1.6423 -1.6267  0.8500
  188POPC    HY 8082   2.976   2.552   5.930 -1.2221  1.9188 -0.5182
  188POPC   O31 8083   2.794   2.615   6.021 -0.0217 -0.1215 -0.4991
  188POPC   C31 8084   2.662   2.573   6.032 -0.2079 -0.7659 -0.3314
  188POPC   O32 8085   2.624   2.464   6.005 -0.3034  0.1260  0.5369
  188POPC   C32 8086   2.576   2.694   6.070  0.2474  1.1276 -0.1687
  188POPC   H2X 8087   2.639   2.775   6.111 -0.1095  1.4321 -0.2140
  188POPC   H2Y 8088   2.527   2.647   6.158  1.9645 -0.3660  0.0479
  188POPC   C23 8089   3.157   2.213   5.796 -0.4528  0.2009  0.7047
  188POPC   H3R 8090   3.146   2.321   5.772 -2.0919  0.3077  1.7781
  188POPC   H3S 8091   3.066   2.166   5.754 -0.5092  1.8050 -1.1682
  188POPC   C24 8092   3.276   2.142   5.727 -0.6658 -0.3397  0.6676
  188POPC   H4R 8093   3.372   2.192   5.749 -0.1493 -2.1695  2.9616
  188POPC   H4S 8094   3.265   2.154   5.617 -0.4211 -0.3162  0.6459
  188POPC   C25 8095   3.296   1.993   5.765  0.6454 -0.1581 -0.0060
  188POPC   H5R 8096   3.193   1.957   5.788  1.2137 -1.4156  0.6637
  188POPC   H5S 8097   3.352   1.982   5.861  0.0410  2.5647  0.7665
  188POPC   C26 8098   3.360   1.907   5.650  0.6669 -0.0481 -0.2431
  188POPC   H6R 8099   3.456   1.955   5.623  1.0974 -1.3933 -1.2031
  188POPC   H6S 8100   3.293   1.914   5.562 -1.3770  0.2431  1.2779
  188POPC   C27 8101   3.371   1.764   5.693 -0.2182 -0.2987 -0.1089
  188POPC   H7R 8102   3.279   1.736   5.748 -0.6883  2.6107  0.7617
  188POPC   H7S 8103   3.450   1.748   5.769 -1.6562  0.7587  1.6926
  188POPC   C28 8104   3.380   1.674   5.575 -0.5874 -0.1019 -0.6988
  188POPC   H8R 8105   3.300   1.706   5.505 -1.5609  1.6134  1.1052
  188POPC   H8S 8106   3.359   1.570   5.608 -0.4078  0.8424  2.8025
  188POPC   C29 8107   3.513   1.685   5.506 -0.2946  0.7172  0.5058
  188POPC   H91 8108   3.602   1.712   5.564  0.2597 -1.0703  0.5357
  188POPC  C210 8109   3.538   1.679   5.371 -0.1658  0.0336  0.9983
  188POPC  H101 8110   3.642   1.685   5.336 -0.8763  0.8092 -1.1410
  188POPC  C211 8111   3.432   1.661   5.258 -0.3727  0.1501 -0.2140
  188POPC  H11R 8112   3.335   1.708   5.284  0.2527  0.2772  2.0172
  188POPC  H11S 8113   3.427   1.551   5.244  1.0652 -0.0525  0.6743
  188POPC  C212 8114   3.496   1.700   5.120  0.2354 -0.3552  0.0485
  188POPC  H12R 8115   3.581   1.630   5.105  2.0149  1.1916  2.2707
  188POPC  H12S 8116   3.534   1.803   5.104  1.5187 -0.8945 -0.4803
  188POPC  C213 8117   3.399   1.677   5.000  0.9165  0.2386 -0.2494
  188POPC  H13R 8118   3.434   1.705   4.899  0.6594  3.5728  0.4646
  188POPC  H13S 8119   3.311   1.742   5.017  0.8632  0.0706  0.1295
  188POPC  C214 8120   3.358   1.530   4.989 -0.1470 -0.5931 -0.2304
  188POPC  H14R 8121   3.301   1.502   5.080  1.4768  2.3667  1.8538
  188POPC  H14S 8122   3.450   1.468   4.993  1.0905  1.1750 -0.3398
  188POPC  C215 8123   3.266   1.493   4.866  0.1343 -0.8062  0.0001
  188POPC  H15R 8124   3.317   1.489   4.767 -0.0485  0.4972 -0.1701
  188POPC  H15S 8125   3.184   1.567   4.874 -1.0857 -2.2635  1.6411
  188POPC  C216 8126   3.194   1.354   4.881 -0.2112 -0.3482  0.2295
  188POPC  H16R 8127   3.271   1.281   4.913  1.3468  1.5974  1.1778
  188POPC  H16S 8128   3.148   1.320   4.785  2.4543 -1.7146 -0.6638
  188POPC  C217 8129   3.074   1.352   4.981 -0.0015 -0.0321 -0.0151
  188POPC  H17R 8130   2.986   1.402   4.934 -1.0410 -1.9348 -0.1756
  188POPC  H17S 8131   3.093   1.402   5.079 -3.4364 -1.5103  1.5875
  188POPC  C218 8132   3.035   1.213   5.031  0.4451 -0.1757  0.2206
  188POPC  H18R 8133   3.126   1.160   5.067  1.9141  2.2855  0.3862
  188POPC  H18S 8134   3.003   1.162   4.937 -1.0468 -2.1546  1.7331
  188POPC  H18T 8135   2.959   1.214   5.111  1.2524  0.4496  0.9973
  188POPC   C33 8136   2.464   2.723   5.967  0.4430 -0.6119  0.1903
  188POPC   H3X 8137   2.395   2.638   5.947  0.7925 -0.9484  0.4080
  188POPC   H3Y 8138   2.515   2.742   5.870 -1.0531  0.5865 -0.3975
  188POPC   C34 8139   2.391   2.862   6.004 -0.2915 -0.0368 -0.2173
  188POPC   H4X 8140   2.460   2.949   6.003  0.8271 -0.9090 -1.5740
  188POPC   H4Y 8141   2.356   2.856   6.110  1.7275  3.3652  0.7820
  188POPC   C35 8142   2.280   2.882   5.912  0.1564 -0.6577  0.9440
  188POPC   H5X 8143   2.206   2.958   5.944  0.2654  0.5389 -1.3771
  188POPC   H5Y 8144   2.221   2.788   5.918 -1.2001  0.2478  2.5431
  188POPC   C36 8145   2.315   2.907   5.766  0.1524  0.6534  0.2698
  188POPC   H6X 8146   2.225   2.909   5.701  1.2849  2.1230 -1.3350
  188POPC   H6Y 8147   2.386   2.830   5.729 -1.5331 -1.7615  1.7431
  188POPC   C37 8148   2.380   3.041   5.729 -0.2289  0.3800  0.2206
  188POPC   H7X 8149   2.481   3.045   5.777  0.3367 -1.3708 -0.7194
  188POPC   H7Y 8150   2.322   3.125   5.771 -3.5699 -1.3171 -0.6824
  188POPC   C38 8151   2.405   3.048   5.569  0.2081  0.9621 -0.4197
  188POPC   H8X 8152   2.460   2.957   5.540 -0.9136 -0.3623  1.3892
  188POPC   H8Y 8153   2.467   3.138   5.553 -0.3452  1.3612 -0.3753
  188POPC   C39 8154   2.269   3.076   5.509  0.4399  0.1430 -0.1226
  188POPC   H9X 8155   2.226   3.171   5.548  0.4537 -0.9522  2.8384
  188POPC   H9Y 8156   2.188   3.003   5.526 -0.0183  0.0352 -2.4664
  188POPC  C310 8157   2.283   3.092   5.359  1.6702  0.0646  0.8397
  188POPC  H10X 8158   2.296   2.993   5.310  0.0328  1.3602 -2.5268
  188POPC  H10Y 8159   2.369   3.159   5.336  1.5130  0.2123  0.6907
  188POPC  C311 8160   2.149   3.144   5.289  0.5418  0.7114  0.0807
  188POPC  H11X 8161   2.119   3.245   5.323 -0.9962  0.5343 -0.6637
  188POPC  H11Y 8162   2.061   3.078   5.309  0.8631 -0.6818 -2.7271
  188POPC  C312 8163   2.155   3.150   5.137 -0.6484  0.2806  0.3574
  188POPC  H12X 8164   2.077   3.222   5.104  2.0200  3.1180 -0.2148
  188POPC  H12Y 8165   2.138   3.051   5.088  0.9977  0.2380 -0.2033
  188POPC  C313 8166   2.290   3.216   5.088 -1.2793  0.9656 -0.1511
  188POPC  H13X 8167   2.375   3.156   5.128 -0.0182  1.5700 -1.8088
  188POPC  H13Y 8168   2.301   3.319   5.128 -2.2996  1.0658 -0.0903
  188POPC  C314 8169   2.302   3.209   4.932  0.3058  0.4456  0.0791
  188POPC  H14X 8170   2.307   3.104   4.896 -1.2999  0.9460 -1.7667
  188POPC  H14Y 8171   2.392   3.272   4.913 -0.1885  0.4440 -2.6575
  188POPC  C315 8172   2.181   3.266   4.859 -0.1374 -0.2463  0.5555
  188POPC  H15X 8173   2.153   3.362   4.908 -0.8560  0.2237 -0.7359
  188POPC  H15Y 8174   2.093   3.202   4.883  0.4545 -1.4454 -0.3367
  188POPC  C316 8175   2.192   3.293   4.707  0.2786  0.2532 -0.5613
  188POPC  H16X 8176   2.094   3.309   4.658  0.1467 -0.7406 -0.6410
  188POPC  H16Y 8177   2.230   3.202   4.655 -1.9854 -0.1502 -1.6265
  188POPC  H16Z 8178   2.264   3.377   4.690  2.4539 -1.1924  0.8868
  189POPC     N 8179   1.317   6.348   6.374  0.1631 -0.2395  0.1750
  189POPC   C12 8180   1.469   6.347   6.367  0.2215  0.2486  0.0082
  189POPC  H12A 8181   1.494   6.275   6.444 -5.3629  0.4789  2.5256
  189POPC  H12B 8182   1.505   6.444   6.399  0.0511  0.4553 -0.4223
  189POPC   C13 8183   1.259   0.001   6.280 -0.1204  0.2666 -0.4051
  189POPC  H13A 8184   1.280  -0.019   6.176 -1.9816 -1.0812 -0.5732
  189POPC  H13B 8185   1.151   0.003   6.285 -0.1039  1.4217 -0.1235
  189POPC  H13C 8186   1.301   0.099   6.301  2.6707 -0.9654  0.1433
  189POPC   C14 8187   1.259   6.218   6.338 -0.5454 -1.2675  0.2213
  189POPC  H14A 8188   1.152   6.222   6.329 -0.6147 -1.6234  0.8668
  189POPC  H14B 8189   1.292   6.183   6.241  0.5456 -1.9819  0.8259
  189POPC  H14C 8190   1.283   6.130   6.396  0.4947 -1.2784 -0.2086
  189POPC   C15 8191   1.268   6.378   6.519  0.7183  0.1681 -0.1551
  189POPC  H15A 8192   1.163   6.405   6.524  0.6452 -0.3031  1.5664
  189POPC  H15B 8193   1.332   6.456   6.557  0.0146  1.1405 -0.9080
  189POPC  H15C 8194   1.291   6.295   6.584 -0.8802  1.5553  2.3542
  189POPC   C11 8195   1.530   6.316   6.227  0.5809 -0.6546  0.6646
  189POPC  H11A 8196   1.625   6.374   6.233 -0.4234  1.0178  1.0238
  189POPC  H11B 8197   1.477   6.375   6.149  0.8375  0.0537  1.0147
  189POPC     P 8198   1.621   6.083   6.285  0.0231 -0.0641 -0.0991
  189POPC   O13 8199   1.527   6.006   6.369 -0.3313 -0.0660 -0.1106
  189POPC   O14 8200   1.713   6.158   6.367 -0.0390 -0.3319  0.3805
  189POPC   O12 8201   1.546   6.181   6.181  0.2218 -0.3062 -0.1973
  189POPC   O11 8202   1.696   5.989   6.188 -0.1902 -0.6060 -0.2295
  189POPC    C1 8203   1.769   6.033   6.076 -0.1557 -0.0375  0.1513
  189POPC    HA 8204   1.854   5.960   6.071 -0.0384  0.0307  0.9903
  189POPC    HB 8205   1.814   6.134   6.084  0.4479 -0.4438  2.8397
  189POPC    C2 8206   1.691   6.014   5.940 -0.6759  0.2504 -0.4820
  189POPC    HS 8207   1.596   6.068   5.961  0.6708  2.4659  0.2816
  189POPC   O21 8208   1.671   5.878   5.900 -0.0487 -0.1576 -0.2893
  189POPC   C21 8209   1.583   5.820   5.970  0.2257 -0.6297 -0.1802
  189POPC   O22 8210   1.517   5.874   6.058 -0.1905 -0.4994 -0.1165
  189POPC   C22 8211   1.580   5.672   5.899  0.1747 -0.5621 -0.6330
  189POPC   H2R 8212   1.687   5.658   5.870 -0.0052 -1.2392 -0.9947
  189POPC   H2S 8213   1.510   5.689   5.815  0.3222  0.5123 -0.5555
  189POPC    C3 8214   1.769   6.095   5.824 -0.0132  0.2315  0.0125
  189POPC    HX 8215   1.865   6.044   5.804  0.9482  0.9873  2.3249
  189POPC    HY 8216   1.805   6.189   5.871 -1.0740  0.3621  0.5907
  189POPC   O31 8217   1.694   6.121   5.706  0.1978 -0.3343  0.1679
  189POPC   C31 8218   1.624   6.237   5.707  0.0105  0.6144  0.1355
  189POPC   O32 8219   1.581   6.298   5.799  0.4768  0.0340 -0.7823
  189POPC   C32 8220   1.609   6.271   5.554 -0.0156  0.5233 -0.4368
  189POPC   H2X 8221   1.643   6.179   5.501  1.0675 -0.1495  1.3287
  189POPC   H2Y 8222   1.692   6.345   5.552  0.5660 -0.0777  0.4944
  189POPC   C23 8223   1.538   5.560   5.989  0.3735 -0.2103 -0.1420
  189POPC   H3R 8224   1.457   5.578   6.063  0.9250  0.6075  0.2853
  189POPC   H3S 8225   1.625   5.530   6.051  0.6598  1.3435  0.2437
  189POPC   C24 8226   1.477   5.455   5.910  0.0760  0.2067  0.2163
  189POPC   H4R 8227   1.388   5.490   5.852  1.8724  1.3098 -2.0288
  189POPC   H4S 8228   1.454   5.372   5.979 -1.3641  1.1911  0.9861
  189POPC   C25 8229   1.571   5.396   5.797  0.0799 -0.2639  0.6324
  189POPC   H5R 8230   1.679   5.387   5.824  1.3981  0.5622 -3.6544
  189POPC   H5S 8231   1.573   5.466   5.711 -2.2504 -1.7812 -0.7580
  189POPC   C26 8232   1.523   5.263   5.736 -0.6844 -1.1378  0.2458
  189POPC   H6R 8233   1.523   5.182   5.813 -0.4387  1.2897  2.9864
  189POPC   H6S 8234   1.599   5.226   5.664 -1.9004 -2.2610 -0.5031
  189POPC   C27 8235   1.389   5.268   5.661 -0.1771 -0.2259  0.5682
  189POPC   H7R 8236   1.367   5.374   5.639 -0.3443 -0.2799  0.4722
  189POPC   H7S 8237   1.306   5.227   5.722 -0.0842 -2.0658 -0.4675
  189POPC   C28 8238   1.409   5.200   5.528 -0.3210 -0.3658 -0.3637
  189POPC   H8R 8239   1.440   5.098   5.561 -0.7381  0.2700  2.2210
  189POPC   H8S 8240   1.494   5.246   5.472 -1.6722 -1.1980 -3.3132
  189POPC   C29 8241   1.280   5.212   5.448  0.4803  0.5393  0.9651
  189POPC   H91 8242   1.200   5.269   5.497 -0.3618  0.1894  0.0476
  189POPC  C210 8243   1.260   5.139   5.342 -0.7564  0.2863  0.6977
  189POPC  H101 8244   1.158   5.136   5.301  0.1401 -3.2650 -1.8138
  189POPC  C211 8245   1.364   5.046   5.279 -0.5311  0.4296  1.0853
  189POPC  H11R 8246   1.338   4.940   5.302  0.7852  0.0504  0.9428
  189POPC  H11S 8247   1.466   5.078   5.310  0.0194  0.6111 -0.7772
  189POPC  C212 8248   1.373   5.067   5.120 -1.0480 -1.0361  0.3053
  189POPC  H12R 8249   1.469   5.028   5.078  1.2335  3.0159  1.2376
  189POPC  H12S 8250   1.382   5.175   5.097  0.6365 -1.1069  0.4769
  189POPC  C213 8251   1.259   5.011   5.037  0.5549  0.5578 -0.4868
  189POPC  H13R 8252   1.168   5.056   5.082  1.0541  0.8990  0.2107
  189POPC  H13S 8253   1.262   4.900   5.045  1.7985  0.4582 -1.9736
  189POPC  C214 8254   1.256   5.038   4.891 -0.2077 -0.2931  1.1278
  189POPC  H14R 8255   1.355   5.008   4.850 -1.1180  0.0779 -1.5382
  189POPC  H14S 8256   1.244   5.147   4.874  0.2518 -0.2766  0.8648
  189POPC  C215 8257   1.154   4.968   4.804  0.5337  0.5817  0.4561
  189POPC  H15R 8258   1.149   5.023   4.708 -2.0212 -0.1729  0.0848
  189POPC  H15S 8259   1.052   4.971   4.848 -0.7783 -1.0058 -2.2153
  189POPC  C216 8260   1.191   4.820   4.778  0.0160 -0.6126 -0.7768
  189POPC  H16R 8261   1.219   4.779   4.877 -0.1253  1.1883  0.0414
  189POPC  H16S 8262   1.280   4.827   4.712  0.9982 -2.2135  0.3043
  189POPC  C217 8263   1.076   4.745   4.709 -0.4166  0.4255 -0.7518
  189POPC  H17R 8264   1.034   4.798   4.620 -0.9805  1.4563  0.1106
  189POPC  H17S 8265   0.998   4.728   4.786 -1.0280  0.5251 -1.3384
  189POPC  C218 8266   1.115   4.597   4.668 -0.2337  0.5275  0.0933
  189POPC  H18R 8267   1.220   4.581   4.633 -0.2940 -1.2438  0.6570
  189POPC  H18S 8268   1.057   4.569   4.578 -0.2221  0.3426  0.1430
  189POPC  H18T 8269   1.099   4.526   4.751 -2.4461 -0.7040 -1.2999
  189POPC   C33 8270   1.468   6.309   5.503  0.1968  0.6257 -0.1072
  189POPC   H3X 8271   1.479   6.359   5.404 -1.6104  0.1513 -0.5932
  189POPC   H3Y 8272   1.421   6.386   5.569 -2.5652 -0.2723 -0.8750
  189POPC   C34 8273   1.376   6.184   5.485 -0.2417 -0.1214  0.2138
  189POPC   H4X 8274   1.411   6.122   5.400  0.1218  0.1542  0.1567
  189POPC   H4Y 8275   1.278   6.230   5.462  1.9139  3.6403 -2.7674
  189POPC   C35 8276   1.366   6.090   5.607  0.6953 -0.5559 -0.0671
  189POPC   H5X 8277   1.323   6.148   5.692  1.1062  0.8534 -0.7824
  189POPC   H5Y 8278   1.457   6.047   5.654 -0.9253 -2.6388  1.3317
  189POPC   C36 8279   1.285   5.969   5.560  0.2362 -0.5078  0.6712
  189POPC   H6X 8280   1.334   5.927   5.469  0.8764  4.1959 -1.4430
  189POPC   H6Y 8281   1.182   5.987   5.522 -0.0716 -3.3168 -0.0424
  189POPC   C37 8282   1.271   5.856   5.662 -1.3464  0.3597 -0.5030
  189POPC   H7X 8283   1.186   5.873   5.731 -0.8064 -3.0417  1.1821
  189POPC   H7Y 8284   1.365   5.860   5.722 -0.7097 -0.1988 -1.4372
  189POPC   C38 8285   1.261   5.721   5.589 -0.3584 -0.5256 -0.0682
  189POPC   H8X 8286   1.292   5.641   5.659  0.5751 -1.3477 -1.3728
  189POPC   H8Y 8287   1.329   5.719   5.501 -0.4772 -1.8779 -0.1524
  189POPC   C39 8288   1.121   5.693   5.540 -0.4726 -0.9045 -0.6143
  189POPC   H9X 8289   1.110   5.763   5.455 -0.7333  0.5944  0.6211
  189POPC   H9Y 8290   1.048   5.707   5.622 -2.7152 -2.4023 -2.2096
  189POPC  C310 8291   1.114   5.542   5.486 -0.0041  0.0156  0.2830
  189POPC  H10X 8292   1.137   5.475   5.571  3.0697  0.4007 -0.1465
  189POPC  H10Y 8293   1.193   5.513   5.414  0.0355 -0.5425  0.5452
  189POPC  C311 8294   0.981   5.507   5.414 -0.3633  0.5802 -0.3305
  189POPC  H11X 8295   0.911   5.566   5.478 -0.2739  1.1523 -0.7526
  189POPC  H11Y 8296   0.965   5.398   5.425 -0.4752  0.6218 -0.0575
  189POPC  C312 8297   0.961   5.549   5.272 -0.1091  0.0700  0.4732
  189POPC  H12X 8298   1.039   5.623   5.244  0.5485 -1.1621 -1.1423
  189POPC  H12Y 8299   0.855   5.579   5.264 -0.5135 -1.0756  1.2584
  189POPC  C313 8300   0.981   5.447   5.160  0.4089 -0.1128  0.1011
  189POPC  H13X 8301   0.905   5.368   5.177  0.0932  0.3391  0.8338
  189POPC  H13Y 8302   1.073   5.386   5.171 -0.0770 -0.8953 -0.1174
  189POPC  C314 8303   0.955   5.509   5.022 -0.9540  0.0753 -0.0323
  189POPC  H14X 8304   0.865   5.574   5.020 -0.1997  1.1448 -0.4265
  189POPC  H14Y 8305   0.944   5.421   4.955  1.4598  0.3192 -0.8501
  189POPC  C315 8306   1.077   5.581   4.960  0.3926 -0.0187  0.0688
  189POPC  H15X 8307   1.164   5.513   4.967 -0.6564 -1.2254  2.3730
  189POPC  H15Y 8308   1.111   5.662   5.029  0.8919  0.0320 -0.2343
  189POPC  C316 8309   1.058   5.622   4.810  0.4033 -0.2022  0.0201
  189POPC  H16X 8310   0.978   5.562   4.762  0.6153 -2.1263  1.9154
  189POPC  H16Y 8311   1.157   5.621   4.759  0.3928  1.4560 -0.0624
  189POPC  H16Z 8312   1.009   5.720   4.796  0.7976 -0.0986 -0.6913
  190POPC     N 8313   1.357   5.061   6.910  0.3278  0.5826  0.1263
  190POPC   C12 8314   1.248   5.090   6.808  0.1978  0.1619  0.3891
  190POPC  H12A 8315   1.187   5.166   6.854 -0.2662 -0.9264  1.6415
  190POPC  H12B 8316   1.194   4.997   6.796  1.9616 -1.0150  1.0863
  190POPC   C13 8317   1.429   5.185   6.949 -0.1549  0.1505 -0.7773
  190POPC  H13A 8318   1.496   5.160   7.030 -1.1070  0.9434  0.3091
  190POPC  H13B 8319   1.476   5.228   6.862 -2.0051  0.6964 -1.5510
  190POPC  H13C 8320   1.365   5.264   6.987 -1.6771 -0.8440 -1.1649
  190POPC   C14 8321   1.288   4.994   7.025  0.4115  0.6027  0.3706
  190POPC  H14A 8322   1.209   5.053   7.069 -1.5112 -2.0244  0.6593
  190POPC  H14B 8323   1.246   4.905   6.982  1.7856  0.2463 -0.3014
  190POPC  H14C 8324   1.360   4.962   7.098  1.1075 -1.0335 -0.9634
  190POPC   C15 8325   1.464   4.957   6.849  0.9266 -0.2300 -0.3179
  190POPC  H15A 8326   1.439   4.852   6.841 -1.2375  0.1815  0.2814
  190POPC  H15B 8327   1.554   4.969   6.908  0.3048 -0.3857  0.6825
  190POPC  H15C 8328   1.482   4.995   6.750 -0.4478  1.7415  0.1123
  190POPC   C11 8329   1.291   5.152   6.678  0.5770  0.1787 -0.0781
  190POPC  H11A 8330   1.358   5.079   6.627 -1.0024 -0.4662 -1.3239
  190POPC  H11B 8331   1.347   5.247   6.695  2.9226 -1.2382  0.5627
  190POPC     P 8332   1.111   5.062   6.513 -0.1614 -0.0564 -0.0734
  190POPC   O13 8333   0.973   5.112   6.481 -0.0581  0.1908 -0.6245
  190POPC   O14 8334   1.120   4.937   6.586 -0.0316  0.1294  0.3342
  190POPC   O12 8335   1.178   5.178   6.601 -0.7167  0.2694  0.3902
  190POPC   O11 8336   1.193   5.062   6.378  0.8811 -0.2552  0.3728
  190POPC    C1 8337   1.276   5.176   6.342  0.2453  0.3351  0.0783
  190POPC    HA 8338   1.348   5.209   6.419  3.4095 -1.3973 -1.9309
  190POPC    HB 8339   1.225   5.273   6.327  2.1470  1.6938  1.8833
  190POPC    C2 8340   1.360   5.136   6.220  1.0490 -0.0368  0.1567
  190POPC    HS 8341   1.432   5.216   6.193  1.9080 -0.3037  1.5630
  190POPC   O21 8342   1.270   5.109   6.114  0.3791 -0.4058  0.2465
  190POPC   C21 8343   1.198   5.218   6.067 -0.1818  0.5986 -0.6619
  190POPC   O22 8344   1.213   5.331   6.101 -0.5095  0.0141 -0.3594
  190POPC   C22 8345   1.114   5.160   5.955 -0.4106 -0.4793  0.4853
  190POPC   H2R 8346   1.025   5.109   5.998 -0.3862  1.4228  3.0228
  190POPC   H2S 8347   1.177   5.090   5.896 -0.5912 -0.4701  0.2844
  190POPC    C3 8348   1.448   5.017   6.251 -0.4220  0.0288  0.0475
  190POPC    HX 8349   1.390   4.929   6.285  0.4334  0.0685  1.7179
  190POPC    HY 8350   1.495   5.047   6.347  0.4892  2.3510 -1.0385
  190POPC   O31 8351   1.550   4.987   6.159 -0.1077  0.0088 -0.2551
  190POPC   C31 8352   1.507   4.912   6.057 -0.4225  1.0612 -0.3611
  190POPC   O32 8353   1.398   4.858   6.051  0.0080 -0.3926  0.3969
  190POPC   C32 8354   1.621   4.895   5.957  0.1611  1.1727 -0.1464
  190POPC   H2X 8355   1.707   4.837   5.994  1.1505  0.5340 -3.1439
  190POPC   H2Y 8356   1.661   4.998   5.944 -1.2356  1.3981 -4.1139
  190POPC   C23 8357   1.063   5.266   5.855  0.5183  0.5650  0.1557
  190POPC   H3R 8358   1.145   5.330   5.816  0.9223 -0.3455 -0.5285
  190POPC   H3S 8359   0.990   5.335   5.903 -2.0907 -1.5111 -0.5433
  190POPC   C24 8360   0.989   5.209   5.732  0.6563  0.2812 -0.5923
  190POPC   H4R 8361   1.063   5.158   5.667  1.2190 -1.5428  1.3594
  190POPC   H4S 8362   0.925   5.288   5.686 -0.0117 -0.0484 -0.2461
  190POPC   C25 8363   0.871   5.113   5.760  0.1402  0.0184 -0.4973
  190POPC   H5R 8364   0.776   5.160   5.794 -0.7657 -1.6729 -0.5901
  190POPC   H5S 8365   0.899   5.037   5.835 -1.8747 -1.2775 -0.9927
  190POPC   C26 8366   0.836   5.022   5.643  0.5734  0.0435 -0.2874
  190POPC   H6R 8367   0.753   4.958   5.678  2.3611 -1.6316  1.1037
  190POPC   H6S 8368   0.926   4.963   5.616 -0.1218 -1.7652  1.1157
  190POPC   C27 8369   0.786   5.096   5.519 -0.3763  0.0224 -1.1657
  190POPC   H7R 8370   0.878   5.153   5.492 -0.3389  0.4871 -0.1056
  190POPC   H7S 8371   0.707   5.173   5.527  0.7940  1.2413 -0.8375
  190POPC   C28 8372   0.761   5.002   5.403 -0.0620 -0.1492  0.0656
  190POPC   H8R 8373   0.688   5.052   5.337  0.0369  2.2955  1.6766
  190POPC   H8S 8374   0.703   4.916   5.442  0.2252 -1.3124 -1.9306
  190POPC   C29 8375   0.887   4.959   5.323 -0.0345  0.7008  0.0099
  190POPC   H91 8376   0.961   4.907   5.386  0.4279 -0.5727 -1.5270
  190POPC  C210 8377   0.917   4.972   5.196  0.1013 -0.1670  0.1796
  190POPC  H101 8378   1.012   4.938   5.154 -0.0135 -0.6789  0.3313
  190POPC  C211 8379   0.825   5.041   5.097  0.3947 -0.3249  0.1499
  190POPC  H11R 8380   0.891   5.112   5.042  0.7036  0.4662  1.4959
  190POPC  H11S 8381   0.744   5.100   5.143  1.1474 -0.2346  1.3956
  190POPC  C212 8382   0.750   4.938   5.012  0.0749 -0.0690  0.0721
  190POPC  H12R 8383   0.674   4.879   5.068  1.7590 -0.6569  1.8618
  190POPC  H12S 8384   0.828   4.873   4.966 -1.2833 -0.6438 -1.5098
  190POPC  C213 8385   0.689   4.996   4.889  0.0591  0.6151  0.0561
  190POPC  H13R 8386   0.774   5.051   4.843  2.4531 -2.0616  0.9510
  190POPC  H13S 8387   0.594   5.049   4.911 -0.2691 -0.3108  0.9554
  190POPC  C214 8388   0.670   4.880   4.780 -0.5063 -0.7382  0.8926
  190POPC  H14R 8389   0.608   4.801   4.826 -2.3983 -0.7854 -1.5966
  190POPC  H14S 8390   0.768   4.833   4.758 -0.0332  1.5514 -2.6740
  190POPC  C215 8391   0.615   4.935   4.650 -0.5517 -0.2277  0.9635
  190POPC  H15R 8392   0.689   5.012   4.621  0.0938 -1.1270  0.1418
  190POPC  H15S 8393   0.517   4.987   4.663 -0.4052  0.3019  0.0828
  190POPC  C216 8394   0.608   4.831   4.540  0.5710 -0.5709 -0.2931
  190POPC  H16R 8395   0.521   4.762   4.545  0.1898 -0.3294 -2.3794
  190POPC  H16S 8396   0.702   4.773   4.534  0.2865 -1.0699  0.0087
  190POPC  C217 8397   0.601   4.909   4.395 -0.2122 -0.3922 -0.7267
  190POPC  H17R 8398   0.680   4.986   4.384 -0.5669 -0.3362 -3.5717
  190POPC  H17S 8399   0.501   4.958   4.397 -0.4984 -0.9790  0.8383
  190POPC  C218 8400   0.630   4.824   4.267 -0.4669 -0.1512 -0.1113
  190POPC  H18R 8401   0.733   4.785   4.277  0.1030  0.3050 -3.0718
  190POPC  H18S 8402   0.632   4.891   4.178  0.4436  2.5027  1.7813
  190POPC  H18T 8403   0.564   4.740   4.239  1.0000 -0.9052 -1.4665
  190POPC   C33 8404   1.577   4.836   5.823  0.0535  0.3330 -0.7798
  190POPC   H3X 8405   1.471   4.805   5.812  0.3990 -0.6698 -1.4428
  190POPC   H3Y 8406   1.628   4.738   5.831  0.9337  0.8240 -0.2664
  190POPC   C34 8407   1.639   4.917   5.705  0.7113 -0.0663  0.2682
  190POPC   H4X 8408   1.727   4.977   5.738 -0.7080  2.2175  0.0874
  190POPC   H4Y 8409   1.560   4.978   5.658  1.9167  0.1977 -1.4982
  190POPC   C35 8410   1.662   4.823   5.585  0.2205 -0.0559  0.2265
  190POPC   H5X 8411   1.567   4.772   5.560 -0.3182  1.1266 -0.2236
  190POPC   H5Y 8412   1.732   4.742   5.617 -1.4375 -1.6034  0.0613
  190POPC   C36 8413   1.718   4.888   5.460  0.2074 -0.1133 -0.3456
  190POPC   H6X 8414   1.809   4.945   5.486 -0.5384  1.1396 -0.4213
  190POPC   H6Y 8415   1.638   4.955   5.423 -1.1297 -2.0813 -1.2276
  190POPC   C37 8416   1.755   4.789   5.349  0.2045 -0.2338  0.7129
  190POPC   H7X 8417   1.664   4.734   5.318  1.6491 -2.1178 -0.3929
  190POPC   H7Y 8418   1.822   4.721   5.406 -2.3257 -1.3869  2.5021
  190POPC   C38 8419   1.839   4.849   5.234 -0.8474  0.4067 -0.4158
  190POPC   H8X 8420   1.870   4.762   5.173 -0.3143 -0.2275  0.7341
  190POPC   H8Y 8421   1.939   4.883   5.269 -0.1083 -2.8399  0.9567
  190POPC   C39 8422   1.770   4.955   5.146 -0.3874  0.2152 -0.0814
  190POPC   H9X 8423   1.722   5.025   5.218 -0.4918  1.9887 -1.7966
  190POPC   H9Y 8424   1.684   4.900   5.102 -0.3834 -2.5576  3.0233
  190POPC  C310 8425   1.861   5.024   5.045  0.7234 -0.7319  0.0054
  190POPC  H10X 8426   1.963   5.043   5.082  0.7380 -0.7427 -0.0287
  190POPC  H10Y 8427   1.816   5.122   5.020 -0.3025 -0.9208  1.0413
  190POPC  C311 8428   1.861   4.943   4.914 -0.0109 -0.1161 -0.2843
  190POPC  H11X 8429   1.758   4.941   4.872  0.5649  0.6448 -1.8137
  190POPC  H11Y 8430   1.892   4.840   4.942  1.3832 -0.1003 -1.6440
  190POPC  C312 8431   1.968   4.989   4.807  0.2883 -0.5266 -0.5354
  190POPC  H12X 8432   1.939   5.092   4.776 -0.1042 -0.7935 -1.0587
  190POPC  H12Y 8433   1.946   4.916   4.726  0.3808 -0.4162 -0.6603
  190POPC  C313 8434   2.112   4.992   4.856 -0.6111  0.4241 -0.1066
  190POPC  H13X 8435   2.145   4.888   4.879  1.3288  0.9817 -0.1938
  190POPC  H13Y 8436   2.116   5.044   4.953  0.6163  0.4999 -0.1894
  190POPC  C314 8437   2.209   5.051   4.761 -0.4602 -0.5255 -0.2997
  190POPC  H14X 8438   2.183   5.159   4.756 -0.7109 -0.5797 -0.1816
  190POPC  H14Y 8439   2.196   5.005   4.660  0.0483  0.0556 -0.6361
  190POPC  C315 8440   2.360   5.039   4.805  0.1734 -0.5540  0.7302
  190POPC  H15X 8441   2.379   4.940   4.852  2.1750 -0.5360  0.0662
  190POPC  H15Y 8442   2.365   5.115   4.886  0.2349 -2.0877  2.2146
  190POPC  C316 8443   2.463   5.089   4.699  0.2008  0.9768  0.3906
  190POPC  H16X 8444   2.447   5.038   4.602  1.1284  1.2553  0.0879
  190POPC  H16Y 8445   2.564   5.062   4.736 -0.0289 -1.6640 -0.6570
  190POPC  H16Z 8446   2.455   5.199   4.688  1.5310  1.2217  1.5603
  191POPC     N 8447   1.828   3.630   6.955  0.1374 -0.0931 -0.0259
  191POPC   C12 8448   1.861   3.591   6.810 -0.0201 -0.6866  0.0038
  191POPC  H12A 8449   1.963   3.618   6.786 -0.1687 -0.0969  0.0352
  191POPC  H12B 8450   1.800   3.650   6.745 -1.2293 -0.5445  1.2239
  191POPC   C13 8451   1.683   3.606   6.984  0.1108  0.3345  0.9491
  191POPC  H13A 8452   1.650   3.506   6.960  1.1331  0.1606  0.2326
  191POPC  H13B 8453   1.663   3.615   7.090 -0.4411 -1.7694  1.0730
  191POPC  H13C 8454   1.618   3.679   6.938 -1.0165 -1.4234 -0.3953
  191POPC   C14 8455   1.915   3.558   7.051  0.2774  0.1179  0.1419
  191POPC  H14A 8456   1.888   3.600   7.146  0.3259  0.3644  0.0481
  191POPC  H14B 8457   1.907   3.451   7.062  0.5773 -0.0388 -1.0174
  191POPC  H14C 8458   2.019   3.588   7.044  0.6440 -0.6931  1.6744
  191POPC   C15 8459   1.853   3.776   6.969 -0.7563 -0.3673 -0.6942
  191POPC  H15A 8460   1.959   3.800   6.969 -1.3343  2.6850  0.6876
  191POPC  H15B 8461   1.815   3.809   7.065  2.7479 -0.1938  0.7917
  191POPC  H15C 8462   1.811   3.848   6.901 -2.0207  3.0726  3.3281
  191POPC   C11 8463   1.836   3.450   6.759  0.3587  0.4463  0.1579
  191POPC  H11A 8464   1.873   3.384   6.841  0.2245 -0.9080 -0.8462
  191POPC  H11B 8465   1.900   3.428   6.671  0.7082  0.4418  0.4096
  191POPC     P 8466   1.613   3.489   6.638 -0.5620  0.4056 -0.4078
  191POPC   O13 8467   1.620   3.634   6.670  0.1730 -0.1180  0.0136
  191POPC   O14 8468   1.481   3.424   6.621  0.3811 -0.0355  0.0874
  191POPC   O12 8469   1.693   3.415   6.749  0.0119 -0.5309  0.0327
  191POPC   O11 8470   1.702   3.464   6.509 -0.0674 -0.3401  0.5886
  191POPC    C1 8471   1.726   3.328   6.466  0.0145 -0.4835  0.1642
  191POPC    HA 8472   1.681   3.248   6.530  0.9060  0.2121  1.7200
  191POPC    HB 8473   1.836   3.319   6.475 -0.0954 -0.5626  1.8290
  191POPC    C2 8474   1.686   3.312   6.321 -0.5173 -0.7210  0.2522
  191POPC    HS 8475   1.681   3.201   6.307  4.1255 -1.3400  1.7100
  191POPC   O21 8476   1.783   3.370   6.231  0.4999 -0.1980 -0.4212
  191POPC   C21 8477   1.887   3.290   6.205  0.6447 -0.3171  0.5170
  191POPC   O22 8478   1.904   3.184   6.258 -0.5027  0.1610  0.7769
  191POPC   C22 8479   1.988   3.371   6.112 -0.6002 -0.0834 -0.3529
  191POPC   H2R 8480   2.082   3.389   6.170 -1.2111  1.1112  0.2939
  191POPC   H2S 8481   1.934   3.465   6.088 -0.1707  0.6030  1.2222
  191POPC    C3 8482   1.541   3.351   6.283  0.3838 -0.0001  0.4239
  191POPC    HX 8483   1.521   3.453   6.323 -0.2476 -0.6099  1.7174
  191POPC    HY 8484   1.480   3.283   6.346  0.6117  0.6349  1.3606
  191POPC   O31 8485   1.522   3.325   6.141  0.0527  0.3753  0.1635
  191POPC   C31 8486   1.557   3.426   6.060 -0.4855 -0.2295  0.3485
  191POPC   O32 8487   1.605   3.538   6.090 -0.4318  1.1180  0.0205
  191POPC   C32 8488   1.508   3.383   5.920 -0.4078  0.7024  0.8489
  191POPC   H2X 8489   1.453   3.287   5.924 -0.6106  0.7848  0.2008
  191POPC   H2Y 8490   1.591   3.359   5.850  0.0062 -0.5734  1.7387
  191POPC   C23 8491   2.019   3.285   5.981 -0.6199 -0.0440 -0.3085
  191POPC   H3R 8492   2.055   3.186   6.016 -2.0031 -0.7436 -0.7790
  191POPC   H3S 8493   2.109   3.329   5.933 -0.6904  0.4854  0.0344
  191POPC   C24 8494   1.902   3.264   5.896  0.2486 -0.6025 -0.5679
  191POPC   H4R 8495   1.847   3.357   5.870 -0.5584 -1.7382 -3.2705
  191POPC   H4S 8496   1.830   3.202   5.954 -0.1333  0.6795  0.3636
  191POPC   C25 8497   1.951   3.198   5.761 -0.0490  0.1310 -0.2241
  191POPC   H5R 8498   2.001   3.101   5.783  0.0955  0.3253  0.3311
  191POPC   H5S 8499   2.034   3.261   5.722  1.0574 -0.5419  0.9413
  191POPC   C26 8500   1.846   3.171   5.655  0.7602 -0.1117  1.0270
  191POPC   H6R 8501   1.751   3.139   5.702  1.5665 -2.8622  0.9439
  191POPC   H6S 8502   1.868   3.090   5.582  3.1078  0.9836  0.4117
  191POPC   C27 8503   1.825   3.297   5.567 -0.2246  0.6438  0.5905
  191POPC   H7R 8504   1.910   3.319   5.498 -0.9858 -0.6032 -0.8081
  191POPC   H7S 8505   1.833   3.380   5.640 -0.0956  0.6568  0.5625
  191POPC   C28 8506   1.686   3.298   5.495 -0.0605  0.8798 -0.1537
  191POPC   H8R 8507   1.612   3.299   5.577  0.7887 -1.5380  0.7424
  191POPC   H8S 8508   1.675   3.202   5.440  0.1925  2.1302 -2.5248
  191POPC   C29 8509   1.669   3.405   5.390  1.2674 -0.0040  0.5055
  191POPC   H91 8510   1.680   3.507   5.430 -0.1821  0.1209  0.6254
  191POPC  C210 8511   1.658   3.403   5.254  0.0978 -0.3620  0.2704
  191POPC  H101 8512   1.636   3.503   5.213 -3.9420 -1.2984 -0.2263
  191POPC  C211 8513   1.649   3.290   5.152  0.1295  0.0014  0.0619
  191POPC  H11R 8514   1.626   3.195   5.205 -1.4091  0.2357 -0.1555
  191POPC  H11S 8515   1.744   3.295   5.093  0.6540  0.8863  0.9559
  191POPC  C212 8516   1.549   3.296   5.040  0.4316  0.0510  0.1218
  191POPC  H12R 8517   1.580   3.390   4.989 -1.2141  1.1399  1.0683
  191POPC  H12S 8518   1.441   3.298   5.066 -0.0519  1.1511 -1.7974
  191POPC  C213 8519   1.560   3.183   4.937 -0.3947 -0.5510 -0.0086
  191POPC  H13R 8520   1.499   3.091   4.952  0.9341 -1.8842 -2.2042
  191POPC  H13S 8521   1.662   3.139   4.930 -1.0784 -2.1506 -0.4375
  191POPC  C214 8522   1.525   3.234   4.790 -0.5717 -0.4434 -0.6580
  191POPC  H14R 8523   1.547   3.139   4.736 -2.1156 -1.3189  0.1688
  191POPC  H14S 8524   1.584   3.319   4.751 -1.6348  0.2514 -0.8038
  191POPC  C215 8525   1.376   3.279   4.783  0.1999  0.9843  0.8438
  191POPC  H15R 8526   1.370   3.380   4.831  1.3941  0.9749  1.0500
  191POPC  H15S 8527   1.308   3.209   4.835 -0.3604  0.7974 -0.1162
  191POPC  C216 8528   1.314   3.278   4.644  0.1218 -0.5323  0.9542
  191POPC  H16R 8529   1.214   3.325   4.631  1.8468  3.4000  0.4253
  191POPC  H16S 8530   1.306   3.172   4.614  0.8610 -0.3536  0.1028
  191POPC  C217 8531   1.402   3.340   4.530  0.4317 -0.1595 -0.1223
  191POPC  H17R 8532   1.498   3.285   4.517  0.6989  0.2295  0.1995
  191POPC  H17S 8533   1.432   3.444   4.555  2.0161 -0.0920 -1.9914
  191POPC  C218 8534   1.326   3.358   4.399 -0.6863  0.4360  0.0412
  191POPC  H18R 8535   1.398   3.395   4.323  0.8193  0.6991  1.5402
  191POPC  H18S 8536   1.240   3.429   4.404 -0.4948  0.8482 -1.7701
  191POPC  H18T 8537   1.290   3.259   4.365  0.8203  0.2651 -1.1700
  191POPC   C33 8538   1.429   3.503   5.866 -0.5628  0.0054  0.4626
  191POPC   H3X 8539   1.513   3.574   5.851 -2.1394  2.6061  2.8818
  191POPC   H3Y 8540   1.358   3.549   5.938 -0.5792  0.2146  0.3154
  191POPC   C34 8541   1.352   3.466   5.739 -0.3047 -0.3715 -0.4030
  191POPC   H4X 8542   1.278   3.388   5.768 -1.4313  0.2475 -1.4928
  191POPC   H4Y 8543   1.430   3.429   5.669 -0.0094 -0.6672  0.0744
  191POPC   C35 8544   1.273   3.574   5.664 -0.1108 -0.3167 -0.0799
  191POPC   H5X 8545   1.358   3.627   5.615  0.3198 -0.2987  0.6717
  191POPC   H5Y 8546   1.225   3.640   5.740  2.3632  1.9746 -0.3276
  191POPC   C36 8547   1.170   3.524   5.565  0.4896 -0.9086 -0.3377
  191POPC   H6X 8548   1.082   3.483   5.619 -0.1062 -2.5557 -2.4313
  191POPC   H6Y 8549   1.220   3.440   5.512  1.0877  0.5215 -2.0953
  191POPC   C37 8550   1.119   3.629   5.461  0.0650  0.0739 -0.2473
  191POPC   H7X 8551   1.210   3.683   5.426 -0.2072  0.2022 -0.7491
  191POPC   H7Y 8552   1.053   3.703   5.510 -0.5393 -1.8454  2.0446
  191POPC   C38 8553   1.054   3.557   5.342  0.4682 -0.2522  0.1564
  191POPC   H8X 8554   0.981   3.486   5.387 -0.1332 -1.3475 -2.3189
  191POPC   H8Y 8555   1.128   3.498   5.283  0.7783 -0.4131  0.7022
  191POPC   C39 8556   0.976   3.651   5.252 -0.3011  0.6784  0.0760
  191POPC   H9X 8557   1.047   3.721   5.203 -0.1743  0.7071  0.3020
  191POPC   H9Y 8558   0.906   3.704   5.319  1.7342  0.9336  2.1249
  191POPC  C310 8559   0.909   3.569   5.144 -0.0885 -0.3570 -0.3936
  191POPC  H10X 8560   0.873   3.474   5.188 -0.2167 -0.6310 -1.0728
  191POPC  H10Y 8561   0.989   3.534   5.076 -0.4452 -0.8137 -0.5855
  191POPC  C311 8562   0.801   3.634   5.061 -0.7250 -0.1768 -0.0530
  191POPC  H11X 8563   0.824   3.740   5.035 -1.6166  0.2862  0.9823
  191POPC  H11Y 8564   0.713   3.649   5.127 -0.3739  0.1350  0.3484
  191POPC  C312 8565   0.756   3.551   4.944 -0.4702  0.2996  0.2326
  191POPC  H12X 8566   0.722   3.452   4.981 -1.5553  1.0176  1.2341
  191POPC  H12Y 8567   0.836   3.541   4.868 -0.3178 -1.9225  0.6258
  191POPC  C313 8568   0.639   3.618   4.875 -0.1623 -0.5009 -0.6446
  191POPC  H13X 8569   0.647   3.725   4.903  1.4907 -0.1215 -2.3683
  191POPC  H13Y 8570   0.550   3.577   4.928 -0.5443  0.8394 -0.2060
  191POPC  C314 8571   0.640   3.588   4.719  0.3091  0.5835  0.1994
  191POPC  H14X 8572   0.646   3.478   4.707  1.2280  0.5123  1.1105
  191POPC  H14Y 8573   0.738   3.625   4.680 -1.0933  1.1046 -3.1631
  191POPC  C315 8574   0.527   3.655   4.638 -0.3455  0.5529  0.4608
  191POPC  H15X 8575   0.538   3.763   4.657  0.9198  0.4292  0.5233
  191POPC  H15Y 8576   0.431   3.626   4.685 -1.0360  2.5536  0.3818
  191POPC  C316 8577   0.515   3.619   4.492  0.4790  0.4602 -0.0170
  191POPC  H16X 8578   0.515   3.508   4.479 -1.8205  0.1918  1.5550
  191POPC  H16Y 8579   0.607   3.650   4.439  1.2156 -2.1083 -0.4176
  191POPC  H16Z 8580   0.430   3.672   4.445  1.2110  0.1679 -1.7437
  192POPC     N 8581   6.226   5.422   6.867  0.2653  0.1908  0.5004
  192POPC   C12 8582   6.136   5.504   6.961  0.7353 -0.5836 -0.7018
  192POPC  H12A 8583   6.044   5.526   6.909  0.0347 -3.8110 -1.0422
  192POPC  H12B 8584   6.185   5.597   6.988 -1.0861 -0.6360  3.7583
  192POPC   C13 8585   6.360   5.408   6.934 -0.1460 -0.4320 -0.2637
  192POPC  H13A 8586   6.356   5.384   7.039 -1.2432  2.1522  0.3560
  192POPC  H13B 8587   6.418   5.327   6.892  0.0877 -0.9598  1.0303
  192POPC  H13C 8588   6.414   5.500   6.918  0.5817 -0.8564 -0.2712
  192POPC   C14 8589   6.171   5.283   6.858 -0.2865 -0.1148  0.0619
  192POPC  H14A 8590   6.083   5.274   6.795  0.7985 -1.0870 -1.3736
  192POPC  H14B 8591   6.235   5.215   6.806  0.2512  1.8532 -1.9932
  192POPC  H14C 8592   6.147   5.231   6.949 -0.1255 -1.0571 -0.4310
  192POPC   C15 8593   6.228   5.482   6.732 -0.1855  0.3887  0.4779
  192POPC  H15A 8594   6.310   5.436   6.679  0.4382  0.9769  0.9115
  192POPC  H15B 8595   6.254   5.587   6.729 -0.1014  0.4027  1.5261
  192POPC  H15C 8596   6.134   5.461   6.683  0.1933  1.2533 -0.6627
  192POPC   C11 8597   6.094   5.450   7.102 -0.4546 -0.2918  0.3011
  192POPC  H11A 8598   6.172   5.455   7.182 -1.3810 -0.0799  1.2155
  192POPC  H11B 8599   6.054   5.347   7.102 -2.1310  0.3238  0.6467
  192POPC     P 8600   5.838   5.536   7.107  0.2722  0.2327  0.1045
  192POPC   O13 8601   5.763   5.649   7.168 -0.1947  0.2428 -0.0888
  192POPC   O14 8602   5.803   5.398   7.157 -0.6116 -0.1984  0.0941
  192POPC   O12 8603   5.998   5.546   7.137  0.2590  0.6042  0.0990
  192POPC   O11 8604   5.814   5.551   6.955 -0.4314  0.6021 -0.5360
  192POPC    C1 8605   5.839   5.437   6.873 -0.0586 -0.1475 -0.3268
  192POPC    HA 8606   5.838   5.339   6.926 -0.2747 -0.0817 -0.2127
  192POPC    HB 8607   5.936   5.442   6.818  1.7027  1.9934  2.7060
  192POPC    C2 8608   5.730   5.430   6.764  0.2455 -0.1475 -0.5505
  192POPC    HS 8609   5.741   5.519   6.699  1.4747  0.1953  0.1050
  192POPC   O21 8610   5.600   5.415   6.828  0.2950 -0.0735  0.2555
  192POPC   C21 8611   5.519   5.518   6.823 -0.7662  0.8356  0.7799
  192POPC   O22 8612   5.552   5.627   6.770 -0.3690  0.2674 -0.1176
  192POPC   C22 8613   5.382   5.486   6.876  0.1655 -0.4053 -0.5599
  192POPC   H2R 8614   5.328   5.580   6.901  0.5794 -0.5114  0.8195
  192POPC   H2S 8615   5.389   5.447   6.980 -0.2694  2.0554  0.4574
  192POPC    C3 8616   5.750   5.303   6.680 -0.2329  0.4657  0.4127
  192POPC    HX 8617   5.739   5.225   6.759 -0.8406 -3.4235 -3.1340
  192POPC    HY 8618   5.850   5.303   6.632 -0.6666 -2.7999 -0.7772
  192POPC   O31 8619   5.644   5.289   6.581  0.5325  0.0518  0.0222
  192POPC   C31 8620   5.673   5.348   6.457 -0.5461  0.7842 -0.1325
  192POPC   O32 8621   5.778   5.399   6.433 -0.3647  0.1343  0.0320
  192POPC   C32 8622   5.549   5.329   6.374 -0.8065  0.3576  0.1001
  192POPC   H2X 8623   5.468   5.402   6.395  0.8759  2.6231 -0.8426
  192POPC   H2Y 8624   5.505   5.231   6.405 -1.8181  1.1905  1.4315
  192POPC   C23 8625   5.293   5.389   6.795 -0.0409 -0.6862 -0.1857
  192POPC   H3R 8626   5.341   5.289   6.797 -0.6126 -0.9611  0.1153
  192POPC   H3S 8627   5.281   5.422   6.690  2.4900 -0.7774 -0.5587
  192POPC   C24 8628   5.162   5.355   6.874 -0.0802  0.2582  0.1092
  192POPC   H4R 8629   5.110   5.452   6.887  1.6179  1.1575  0.4528
  192POPC   H4S 8630   5.179   5.313   6.975 -3.0195  1.4426  1.2001
  192POPC   C25 8631   5.070   5.262   6.797  0.6556 -0.3518 -0.0829
  192POPC   H5R 8632   4.967   5.260   6.837  0.4508  1.5048 -0.4229
  192POPC   H5S 8633   5.118   5.162   6.788  0.7413 -0.4553  1.2767
  192POPC   C26 8634   5.042   5.301   6.658 -0.2680 -0.5414  0.7117
  192POPC   H6R 8635   5.139   5.296   6.604  0.4496  0.5470  1.8550
  192POPC   H6S 8636   5.005   5.404   6.642 -0.9360 -0.9413 -0.4940
  192POPC   C27 8637   4.936   5.211   6.597 -0.7460  0.0291  0.1463
  192POPC   H7R 8638   4.907   5.263   6.503 -0.7205  0.7399  0.5203
  192POPC   H7S 8639   4.863   5.199   6.679  0.0933 -0.2262  0.8706
  192POPC   C28 8640   4.992   5.083   6.536  0.2705 -0.1024 -0.5255
  192POPC   H8R 8641   5.063   5.040   6.609  0.3039  4.3904  2.4840
  192POPC   H8S 8642   5.065   5.123   6.462  2.1812 -1.8891  0.3038
  192POPC   C29 8643   4.893   4.991   6.463  0.0090  0.4067  0.4195
  192POPC   H91 8644   4.854   4.915   6.532 -0.4884  1.1499  0.9855
  192POPC  C210 8645   4.868   4.978   6.327 -0.4048  0.5209 -0.5772
  192POPC  H101 8646   4.796   4.901   6.295 -1.5986  1.1791  0.4348
  192POPC  C211 8647   4.921   5.077   6.230 -1.1115 -0.1251 -0.1870
  192POPC  H11R 8648   4.995   5.034   6.160 -0.5167  1.7722 -0.7827
  192POPC  H11S 8649   4.968   5.170   6.270 -0.2059 -1.1583  1.2808
  192POPC  C212 8650   4.813   5.137   6.142 -0.0989  0.2471 -0.6119
  192POPC  H12R 8651   4.842   5.215   6.069 -1.7638  1.5567  0.0734
  192POPC  H12S 8652   4.745   5.186   6.215  0.4347 -0.6717  0.5266
  192POPC  C213 8653   4.744   5.024   6.064 -0.0371  0.0207  0.0414
  192POPC  H13R 8654   4.668   4.976   6.129  0.8137 -0.8332  0.4279
  192POPC  H13S 8655   4.820   4.956   6.020  1.3422  1.7028 -0.3043
  192POPC  C214 8656   4.674   5.076   5.939 -0.0738 -0.1901  0.2154
  192POPC  H14R 8657   4.727   5.160   5.890 -1.1344 -0.3152 -1.2132
  192POPC  H14S 8658   4.576   5.119   5.968  0.6484  0.1107  2.4061
  192POPC  C215 8659   4.647   4.970   5.838  0.2618 -0.0084  0.1796
  192POPC  H15R 8660   4.593   4.891   5.895  1.3631 -0.5358  0.5324
  192POPC  H15S 8661   4.746   4.926   5.814  0.3373  0.6731 -0.7651
  192POPC  C216 8662   4.559   5.007   5.715 -0.0507  0.1103 -0.7174
  192POPC  H16R 8663   4.465   5.053   5.753 -1.9651 -4.1833  0.3676
  192POPC  H16S 8664   4.517   4.912   5.676 -0.9327 -0.3675  1.2516
  192POPC  C217 8665   4.640   5.094   5.627 -0.1312  0.0440 -0.5081
  192POPC  H17R 8666   4.736   5.044   5.602 -0.9057 -2.9380  1.8184
  192POPC  H17S 8667   4.667   5.184   5.688  0.0521 -1.4897  1.8069
  192POPC  C218 8668   4.558   5.121   5.504  0.6565 -0.1941  0.3279
  192POPC  H18R 8669   4.457   5.149   5.541  0.4428 -2.5320  1.7229
  192POPC  H18S 8670   4.539   5.033   5.439  0.7915 -0.8103  1.1066
  192POPC  H18T 8671   4.602   5.204   5.444 -0.2882 -0.6923 -1.1101
  192POPC   C33 8672   5.560   5.333   6.224 -0.0412  1.1098  0.4626
  192POPC   H3X 8673   5.651   5.282   6.187 -0.6811  0.9928 -1.0114
  192POPC   H3Y 8674   5.579   5.437   6.191  0.8077  0.9404  0.3851
  192POPC   C34 8675   5.458   5.253   6.149 -0.9051  0.4087 -0.9141
  192POPC   H4X 8676   5.443   5.302   6.051 -0.2225  1.7715 -0.3651
  192POPC   H4Y 8677   5.357   5.261   6.193 -0.9379 -0.9138 -0.6873
  192POPC   C35 8678   5.496   5.102   6.138  0.2291 -0.3414  0.6399
  192POPC   H5X 8679   5.503   5.055   6.238  1.5636  0.8915  1.1810
  192POPC   H5Y 8680   5.594   5.084   6.087  0.0507 -1.7209  0.7527
  192POPC   C36 8681   5.385   5.034   6.054  0.2246 -0.6286  0.3440
  192POPC   H6X 8682   5.398   5.073   5.951 -0.6187 -0.7472  0.1864
  192POPC   H6Y 8683   5.283   5.059   6.091 -0.7644  0.8605 -3.0133
  192POPC   C37 8684   5.407   4.879   6.043  0.8793 -0.4866 -0.0029
  192POPC   H7X 8685   5.516   4.867   6.021  0.9413  0.8282 -0.4858
  192POPC   H7Y 8686   5.353   4.839   5.954  4.6663 -1.7885 -1.9558
  192POPC   C38 8687   5.363   4.801   6.174  0.1444 -0.0688  0.0593
  192POPC   H8X 8688   5.426   4.839   6.257  1.2342 -0.4368 -0.5900
  192POPC   H8Y 8689   5.396   4.696   6.157  4.3288  1.1434 -0.3374
  192POPC   C39 8690   5.213   4.815   6.201  0.0881  0.0379  0.0033
  192POPC   H9X 8691   5.167   4.916   6.200  1.7722  0.9518  2.6667
  192POPC   H9Y 8692   5.203   4.782   6.307  3.9334  1.6039  1.0550
  192POPC  C310 8693   5.137   4.718   6.114 -0.2939  0.7480  0.2973
  192POPC  H10X 8694   5.170   4.620   6.154 -1.3717  0.4380  0.4811
  192POPC  H10Y 8695   5.184   4.725   6.014  0.5675  1.4234  0.7345
  192POPC  C311 8696   4.986   4.719   6.113 -0.0842 -0.3939 -0.4693
  192POPC  H11X 8697   4.958   4.816   6.067 -1.0245 -1.5346 -2.4460
  192POPC  H11Y 8698   4.947   4.720   6.217 -0.2131 -1.0506 -0.5044
  192POPC  C312 8699   4.918   4.621   6.012 -0.0076  0.2726 -0.4150
  192POPC  H12X 8700   4.946   4.523   6.057  1.7220  0.6210 -0.6762
  192POPC  H12Y 8701   4.964   4.634   5.912  0.9770  1.3044  0.1413
  192POPC  C313 8702   4.769   4.637   6.005 -0.1658  0.0709  0.0608
  192POPC  H13X 8703   4.747   4.734   5.955  0.6825 -0.6004 -1.7106
  192POPC  H13Y 8704   4.723   4.627   6.106 -2.4419 -2.4628 -1.0965
  192POPC  C314 8705   4.707   4.519   5.923 -0.9148  0.4667  0.1251
  192POPC  H14X 8706   4.608   4.489   5.962 -0.4893 -0.2911  0.6598
  192POPC  H14Y 8707   4.776   4.437   5.955  0.1807  1.4299  0.3128
  192POPC  C315 8708   4.706   4.541   5.772  0.7167  0.1711  0.2737
  192POPC  H15X 8709   4.807   4.568   5.733  0.5643 -1.1780 -1.1394
  192POPC  H15Y 8710   4.638   4.626   5.748  2.0178  1.7278  1.7559
  192POPC  C316 8711   4.686   4.418   5.688 -0.4109  0.2355  0.4032
  192POPC  H16X 8712   4.601   4.360   5.728 -0.4201 -1.6018 -2.0097
  192POPC  H16Y 8713   4.776   4.352   5.688  0.5347  1.4206  2.6506
  192POPC  H16Z 8714   4.665   4.441   5.581  1.7367 -2.2902 -0.6787
  193POPC     N 8715   4.696   2.834   7.204 -0.0657  0.5771  0.0154
  193POPC   C12 8716   4.678   2.750   7.085  0.5194 -0.6461 -0.3599
  193POPC  H12A 8717   4.583   2.699   7.092  0.0080  0.4734  1.3610
  193POPC  H12B 8718   4.742   2.662   7.090 -1.4839 -2.0816  2.0777
  193POPC   C13 8719   4.588   2.929   7.201  0.2689 -0.5885 -0.5333
  193POPC  H13A 8720   4.569   2.960   7.303 -3.2738 -2.8261 -0.3394
  193POPC  H13B 8721   4.603   3.020   7.144  0.1056 -1.1521 -1.4974
  193POPC  H13C 8722   4.494   2.887   7.168 -1.9264  2.8052  0.8418
  193POPC   C14 8723   4.695   2.751   7.328 -0.5221  1.3976  0.1713
  193POPC  H14A 8724   4.607   2.689   7.337  0.0751  0.3731 -0.7557
  193POPC  H14B 8725   4.783   2.688   7.323  0.5957  3.0084 -3.2212
  193POPC  H14C 8726   4.701   2.812   7.417 -1.5661  2.2062 -0.3037
  193POPC   C15 8727   4.827   2.914   7.207  0.2467 -0.3047  0.2287
  193POPC  H15A 8728   4.865   2.925   7.308 -0.8277 -0.1053  0.6266
  193POPC  H15B 8729   4.799   3.012   7.171  0.5830  0.6789  2.4307
  193POPC  H15C 8730   4.900   2.873   7.139  0.8657  1.4861 -0.2523
  193POPC   C11 8731   4.716   2.809   6.941 -0.2871 -0.2897 -0.2370
  193POPC  H11A 8732   4.736   2.918   6.951  1.8778 -0.4819 -1.9135
  193POPC  H11B 8733   4.632   2.792   6.870  0.9999 -2.6550 -1.3110
  193POPC     P 8734   4.818   2.600   6.821 -0.1285 -0.2298  0.1233
  193POPC   O13 8735   4.693   2.527   6.860 -0.2752  0.0199 -0.2469
  193POPC   O14 8736   4.941   2.517   6.840 -0.0278 -0.4272  0.2020
  193POPC   O12 8737   4.831   2.737   6.904  0.0325  0.0539  0.6803
  193POPC   O11 8738   4.807   2.649   6.678  0.0845  0.0968 -0.6853
  193POPC    C1 8739   4.729   2.585   6.578 -0.1604 -0.5231 -0.5285
  193POPC    HA 8740   4.628   2.554   6.612  0.8303 -0.5701  2.6785
  193POPC    HB 8741   4.768   2.483   6.559 -0.3367 -0.8239  0.6608
  193POPC    C2 8742   4.723   2.669   6.454 -0.4913 -0.1929 -0.2323
  193POPC    HS 8743   4.637   2.625   6.400 -0.5721  1.1412 -1.2335
  193POPC   O21 8744   4.849   2.659   6.380 -0.2843  0.3965 -0.1319
  193POPC   C21 8745   4.862   2.550   6.306  0.0131  0.1440 -0.2669
  193POPC   O22 8746   4.778   2.463   6.293  0.0064 -0.0369 -0.5130
  193POPC   C22 8747   4.993   2.552   6.233 -0.7340  0.2601 -0.5180
  193POPC   H2R 8748   5.048   2.458   6.257 -1.3954 -0.3101 -1.1910
  193POPC   H2S 8749   5.064   2.629   6.271 -0.3271 -0.5276  0.3738
  193POPC    C3 8750   4.702   2.818   6.493 -0.0862 -0.0918  0.7212
  193POPC    HX 8751   4.804   2.861   6.494  0.1952 -0.5926 -1.3923
  193POPC    HY 8752   4.662   2.816   6.597  0.1707 -0.4128  0.8145
  193POPC   O31 8753   4.608   2.891   6.406 -0.0121 -0.0782  0.3888
  193POPC   C31 8754   4.661   2.959   6.294 -0.3920 -0.0070  0.2393
  193POPC   O32 8755   4.777   2.949   6.264 -0.4004 -0.0887  0.0441
  193POPC   C32 8756   4.553   3.046   6.228  0.0288  0.0394  0.0265
  193POPC   H2X 8757   4.581   3.142   6.276  0.0842 -0.0536  0.1806
  193POPC   H2Y 8758   4.454   3.012   6.266  0.2302  1.4030  1.8726
  193POPC   C23 8759   4.974   2.585   6.085  0.3947  0.5887 -0.4217
  193POPC   H3R 8760   4.904   2.515   6.035  3.0576 -1.9557 -0.8778
  193POPC   H3S 8761   5.068   2.565   6.029 -0.2534 -0.3216 -1.2346
  193POPC   C24 8762   4.922   2.724   6.046  0.3270  0.3474  0.0132
  193POPC   H4R 8763   4.967   2.803   6.110 -2.0919  2.5398 -0.8279
  193POPC   H4S 8764   4.812   2.735   6.057  0.3665  1.5282 -0.5563
  193POPC   C25 8765   4.941   2.765   5.901  0.2657  0.0900 -0.3820
  193POPC   H5R 8766   4.892   2.693   5.831  0.0802 -0.7885  0.6244
  193POPC   H5S 8767   5.050   2.762   5.881  0.3717  0.3115  0.1585
  193POPC   C26 8768   4.876   2.906   5.868  0.8210  1.0035 -0.0124
  193POPC   H6R 8769   4.933   2.993   5.907 -1.5849  1.9344  1.6902
  193POPC   H6S 8770   4.780   2.919   5.921  0.2778  1.1985 -1.0183
  193POPC   C27 8771   4.858   2.934   5.719 -0.4013  0.2878 -0.0539
  193POPC   H7R 8772   4.783   3.012   5.696  0.8064  1.9587  1.4090
  193POPC   H7S 8773   4.829   2.839   5.670  1.1354 -0.7703  0.9604
  193POPC   C28 8774   4.992   2.988   5.660 -0.5957 -0.2739 -0.3391
  193POPC   H8R 8775   5.065   2.910   5.689  0.9586  1.9471  2.2033
  193POPC   H8S 8776   5.011   3.083   5.714 -0.3064 -0.1735 -0.6139
  193POPC   C29 8777   4.995   3.017   5.517 -0.3483  0.2489 -0.1540
  193POPC   H91 8778   4.966   3.118   5.486  0.2633  0.9038  1.3181
  193POPC  C210 8779   5.033   2.938   5.411 -0.0966  0.4722  0.2996
  193POPC  H101 8780   5.007   2.961   5.307  1.9217  0.0435 -0.3469
  193POPC  C211 8781   5.089   2.799   5.426 -0.6057  0.5941 -0.3426
  193POPC  H11R 8782   5.003   2.730   5.411 -2.8981  2.9812  0.9025
  193POPC  H11S 8783   5.129   2.778   5.527  1.1418  0.0314 -1.1143
  193POPC  C212 8784   5.206   2.753   5.337 -0.3527  0.1402  0.4280
  193POPC  H12R 8785   5.176   2.769   5.231  1.4777  1.4387  0.0493
  193POPC  H12S 8786   5.235   2.646   5.343 -0.9232 -0.0974 -0.8061
  193POPC  C213 8787   5.334   2.836   5.359 -0.1439 -0.3551 -0.2829
  193POPC  H13R 8788   5.387   2.788   5.443 -1.1339  2.1814  1.9276
  193POPC  H13S 8789   5.308   2.939   5.392  1.0186  0.7142 -2.4420
  193POPC  C214 8790   5.435   2.841   5.243  0.2841 -0.4470 -0.0454
  193POPC  H14R 8791   5.390   2.919   5.176 -0.0112  0.5865  1.3101
  193POPC  H14S 8792   5.422   2.745   5.190 -2.4650 -0.0122 -0.3243
  193POPC  C215 8793   5.578   2.881   5.286  0.0538 -0.0181 -0.1874
  193POPC  H15R 8794   5.618   2.799   5.349 -0.0999 -1.2250 -1.6202
  193POPC  H15S 8795   5.570   2.975   5.346  1.2252 -0.6150  0.9365
  193POPC  C216 8796   5.683   2.906   5.179  0.5124 -0.1462 -0.8755
  193POPC  H16R 8797   5.712   2.816   5.121  3.4036 -2.3008  3.3797
  193POPC  H16S 8798   5.777   2.933   5.232  0.7611 -0.7179 -1.0187
  193POPC  C217 8799   5.651   3.008   5.071 -0.0505  0.5131 -0.2027
  193POPC  H17R 8800   5.624   3.112   5.098  0.8800  1.7156 -3.4772
  193POPC  H17S 8801   5.560   2.961   5.026 -2.9652  3.3922  2.1558
  193POPC  C218 8802   5.760   3.029   4.974  0.2132 -0.3001  0.0339
  193POPC  H18R 8803   5.717   3.076   4.883  0.4741  1.4998  0.7983
  193POPC  H18S 8804   5.844   3.093   5.008  0.0135  0.3505 -0.6798
  193POPC  H18T 8805   5.799   2.930   4.940  0.3948 -0.6055  1.0980
  193POPC   C33 8806   4.571   3.075   6.081 -0.9448  0.4797  0.7431
  193POPC   H3X 8807   4.678   3.074   6.051 -0.8733 -2.4729  0.8021
  193POPC   H3Y 8808   4.540   3.181   6.067  0.9078  0.9626 -0.0218
  193POPC   C34 8809   4.490   2.980   5.985 -0.3042  0.0002  0.4030
  193POPC   H4X 8810   4.387   2.981   6.025  0.1543 -2.3679  1.8714
  193POPC   H4Y 8811   4.509   2.872   6.007 -0.8875  0.2379  2.2482
  193POPC   C35 8812   4.506   3.005   5.831  0.0228 -1.3416 -0.0360
  193POPC   H5X 8813   4.610   3.042   5.816 -0.4323  0.3792  0.7982
  193POPC   H5Y 8814   4.445   3.087   5.788  1.2761 -1.4058 -2.0656
  193POPC   C36 8815   4.490   2.876   5.749 -0.2552  0.5336  0.5425
  193POPC   H6X 8816   4.400   2.816   5.776 -0.2789  1.5496  3.0005
  193POPC   H6Y 8817   4.565   2.797   5.771  2.2795  2.8265  0.6318
  193POPC   C37 8818   4.491   2.909   5.601 -0.0971  0.3077  0.0708
  193POPC   H7X 8819   4.554   3.000   5.588  0.4077  0.0406  0.6063
  193POPC   H7Y 8820   4.394   2.946   5.564 -0.0262  0.1475 -0.2841
  193POPC   C38 8821   4.533   2.794   5.510  0.0486  0.4904  0.3518
  193POPC   H8X 8822   4.447   2.724   5.507  0.2036  0.3316 -0.9184
  193POPC   H8Y 8823   4.620   2.733   5.543  0.5603  1.9535  1.8747
  193POPC   C39 8824   4.547   2.828   5.359  0.0852 -0.1801  0.2072
  193POPC   H9X 8825   4.465   2.895   5.326 -0.2812 -1.3308 -1.3595
  193POPC   H9Y 8826   4.550   2.732   5.302 -1.4719  0.6859 -1.4302
  193POPC  C310 8827   4.683   2.881   5.322  0.1956 -0.4247 -0.0180
  193POPC  H10X 8828   4.759   2.811   5.363 -0.0924 -0.4392  0.4987
  193POPC  H10Y 8829   4.692   2.980   5.370 -2.7193 -0.3758  0.5586
  193POPC  C311 8830   4.704   2.897   5.166  0.0082 -0.2224  0.2343
  193POPC  H11X 8831   4.688   2.797   5.119  1.2634 -0.2982 -0.0595
  193POPC  H11Y 8832   4.810   2.929   5.166  0.5041 -1.7431  0.8325
  193POPC  C312 8833   4.612   2.995   5.087  0.0522 -0.2945  0.0909
  193POPC  H12X 8834   4.646   3.099   5.101  0.4876  0.1458 -3.4308
  193POPC  H12Y 8835   4.504   2.992   5.116 -0.0821  0.9002 -0.2601
  193POPC  C313 8836   4.620   2.961   4.935 -0.3447 -0.4872 -0.1239
  193POPC  H13X 8837   4.585   2.858   4.911  1.6317 -1.3902  0.6814
  193POPC  H13Y 8838   4.727   2.966   4.905 -0.6542 -1.9860 -1.6837
  193POPC  C314 8839   4.540   3.063   4.835  0.2877  0.1737 -0.4314
  193POPC  H14X 8840   4.582   3.158   4.874 -0.6041  0.3436  0.1573
  193POPC  H14Y 8841   4.432   3.055   4.862  0.0904  1.7351 -0.6545
  193POPC  C315 8842   4.580   3.045   4.687 -0.6498  0.1629 -0.5938
  193POPC  H15X 8843   4.547   2.941   4.666  0.9594 -0.4904 -0.0945
  193POPC  H15Y 8844   4.691   3.039   4.674 -0.4582 -0.9497  1.1630
  193POPC  C316 8845   4.524   3.150   4.594  0.6468  0.6683  0.5817
  193POPC  H16X 8846   4.419   3.126   4.568  1.4965 -1.3449 -1.2947
  193POPC  H16Y 8847   4.586   3.144   4.502  1.6450 -3.0623  1.3089
  193POPC  H16Z 8848   4.526   3.251   4.640 -0.4958  1.4503 -0.9944
  194POPC     N 8849   1.029   5.580   2.704  0.2535 -0.1343 -0.9998
  194POPC   C12 8850   0.994   5.671   2.828  0.1072  0.4001  0.1178
  194POPC  H12A 8851   0.921   5.745   2.799  2.4442  1.8561 -2.4778
  194POPC  H12B 8852   1.072   5.741   2.851 -1.6778  2.0892  1.4393
  194POPC   C13 8853   0.914   5.487   2.667 -0.1354 -0.9912 -0.2113
  194POPC  H13A 8854   0.959   5.422   2.594  0.9515 -0.4566 -0.0299
  194POPC  H13B 8855   0.881   5.429   2.752 -2.0086 -0.3524 -0.4478
  194POPC  H13C 8856   0.826   5.532   2.621 -0.5187 -0.2208  1.2021
  194POPC   C14 8857   1.078   5.666   2.598 -0.7411  0.4630  0.2046
  194POPC  H14A 8858   1.000   5.732   2.561  0.1468 -0.5894 -4.1030
  194POPC  H14B 8859   1.161   5.728   2.629  1.8586 -2.5833 -0.1835
  194POPC  H14C 8860   1.109   5.614   2.509  0.5554 -2.6994  2.3561
  194POPC   C15 8861   1.131   5.475   2.745  0.1663 -0.2461 -0.0789
  194POPC  H15A 8862   1.214   5.515   2.801  1.3624 -3.6299  0.7661
  194POPC  H15B 8863   1.160   5.426   2.653 -2.5612 -0.7597 -0.7491
  194POPC  H15C 8864   1.083   5.404   2.810  1.0838 -0.8612 -0.0502
  194POPC   C11 8865   0.959   5.604   2.964 -0.2818  0.3414 -1.2192
  194POPC  H11A 8866   0.950   5.684   3.041 -0.0325 -0.8236  0.0514
  194POPC  H11B 8867   1.050   5.545   2.987  0.0447  1.4284  0.4215
  194POPC     P 8868   0.846   5.370   3.005  0.3491  0.1154  0.1295
  194POPC   O13 8869   0.955   5.303   2.938 -0.1801 -0.0562  0.0959
  194POPC   O14 8870   0.711   5.315   2.993 -0.2230  0.1022  0.0422
  194POPC   O12 8871   0.839   5.522   2.966 -0.5637  0.3855 -0.0201
  194POPC   O11 8872   0.883   5.377   3.159 -0.3635  0.2043  0.2438
  194POPC    C1 8873   0.836   5.484   3.243 -0.1298 -0.5293  1.0369
  194POPC    HA 8874   0.768   5.554   3.189 -2.4987 -0.5436  3.7643
  194POPC    HB 8875   0.925   5.546   3.268  0.4329 -0.0265 -1.8267
  194POPC    C2 8876   0.761   5.424   3.368  0.2777  0.1779  0.3519
  194POPC    HS 8877   0.748   5.505   3.442 -2.5157  0.1872 -0.0166
  194POPC   O21 8878   0.829   5.314   3.429 -0.8768 -0.1780 -0.5589
  194POPC   C21 8879   0.948   5.343   3.471  0.1833 -0.5091 -0.5611
  194POPC   O22 8880   0.994   5.456   3.479  0.1310 -0.1237  0.1844
  194POPC   C22 8881   1.015   5.214   3.527 -0.1213 -0.1656 -0.3794
  194POPC   H2R 8882   1.116   5.199   3.483  0.2977 -0.1300  0.5622
  194POPC   H2S 8883   0.952   5.126   3.500 -1.8975  1.1756 -0.8276
  194POPC    C3 8884   0.625   5.374   3.336 -0.1826  0.5922  0.1487
  194POPC    HX 8885   0.636   5.284   3.271  0.9748  0.0102  1.1168
  194POPC    HY 8886   0.572   5.451   3.277  1.7374  0.6583 -1.6117
  194POPC   O31 8887   0.549   5.351   3.457  0.2621 -0.2130  0.1458
  194POPC   C31 8888   0.553   5.226   3.493 -0.6593  0.0733 -0.4230
  194POPC   O32 8889   0.583   5.128   3.425  0.3457  0.2471 -0.0649
  194POPC   C32 8890   0.463   5.227   3.619 -0.6119 -0.4001  0.0826
  194POPC   H2X 8891   0.381   5.297   3.593 -0.3293 -0.3524 -0.7111
  194POPC   H2Y 8892   0.522   5.275   3.700 -1.0201  0.8230 -0.3198
  194POPC   C23 8893   1.028   5.221   3.686 -0.3887  0.3128 -0.6067
  194POPC   H3R 8894   1.041   5.324   3.727 -1.7916  0.2975 -0.0360
  194POPC   H3S 8895   1.111   5.151   3.707 -0.5760 -0.4187 -2.2117
  194POPC   C24 8896   0.906   5.172   3.762 -0.4705  0.0368  0.1263
  194POPC   H4R 8897   0.870   5.074   3.725 -2.4624  0.7529  0.0727
  194POPC   H4S 8898   0.820   5.240   3.743  0.7965  1.0455 -2.7487
  194POPC   C25 8899   0.936   5.161   3.909  0.6103 -0.9490  0.5971
  194POPC   H5R 8900   0.971   5.260   3.946 -1.2506  0.5888 -1.4573
  194POPC   H5S 8901   1.021   5.091   3.924  0.5424 -1.2594 -0.3994
  194POPC   C26 8902   0.812   5.111   3.987 -0.4936 -0.2901 -0.7694
  194POPC   H6R 8903   0.861   5.077   4.081  1.2525 -0.0983 -1.5717
  194POPC   H6S 8904   0.764   5.018   3.949 -2.1040  0.1482  0.1022
  194POPC   C27 8905   0.710   5.223   4.023 -0.2290 -0.3074 -0.2861
  194POPC   H7R 8906   0.635   5.229   3.941  0.4330 -0.9926 -0.9568
  194POPC   H7S 8907   0.766   5.319   4.022  0.8294 -0.8243 -3.6332
  194POPC   C28 8908   0.642   5.190   4.157  0.3912  0.3701 -0.6579
  194POPC   H8R 8909   0.714   5.148   4.230  2.6886  4.0109 -0.5568
  194POPC   H8S 8910   0.564   5.113   4.137  0.0732  0.7582 -0.9491
  194POPC   C29 8911   0.587   5.310   4.226  0.8316 -0.2685 -0.4673
  194POPC   H91 8912   0.663   5.377   4.269 -0.1255  0.0938  0.7156
  194POPC  C210 8913   0.457   5.351   4.222 -0.2333 -0.8555 -0.2801
  194POPC  H101 8914   0.428   5.439   4.282 -1.2937 -0.7988 -0.8673
  194POPC  C211 8915   0.341   5.297   4.142  0.9815  0.0250  0.9015
  194POPC  H11R 8916   0.363   5.214   4.071 -1.7286 -1.0735  1.2023
  194POPC  H11S 8917   0.308   5.387   4.086  1.1870  0.5511  1.6101
  194POPC  C212 8918   0.216   5.242   4.224 -0.1305  0.2715 -0.0074
  194POPC  H12R 8919   0.141   5.193   4.158  0.7408 -0.8543 -0.2103
  194POPC  H12S 8920   0.169   5.330   4.272  0.5270 -1.1794  3.6084
  194POPC  C213 8921   0.250   5.138   4.331 -0.0746  0.5544 -0.0161
  194POPC  H13R 8922   0.328   5.178   4.399  1.5514  1.7633 -2.4473
  194POPC  H13S 8923   0.291   5.049   4.279 -0.6011  0.4215 -0.2100
  194POPC  C214 8924   0.130   5.085   4.414  0.1779 -0.2846  0.2307
  194POPC  H14R 8925   0.152   4.989   4.465  1.7522 -0.0752 -0.0226
  194POPC  H14S 8926   0.052   5.068   4.336  0.6947 -0.6913 -0.1989
  194POPC  C215 8927   0.067   5.187   4.514 -0.8469  0.0373 -0.2112
  194POPC  H15R 8928  -0.021   5.136   4.558 -1.4450 -0.8602 -2.3125
  194POPC  H15S 8929   0.039   5.283   4.464  2.8319  2.4296  1.8767
  194POPC  C216 8930   0.168   5.219   4.632 -0.1339  0.5441  0.1557
  194POPC  H16R 8931   0.110   5.290   4.694 -2.3184  0.3961 -1.5749
  194POPC  H16S 8932   0.263   5.267   4.599  0.3212 -1.7283 -2.1605
  194POPC  C217 8933   0.218   5.098   4.707  0.2496 -0.7826 -0.2422
  194POPC  H17R 8934   0.255   5.016   4.642 -0.9572 -0.0218 -1.9580
  194POPC  H17S 8935   0.127   5.066   4.762  0.3233 -0.0620  0.3096
  194POPC  C218 8936   0.332   5.138   4.798  0.1297 -0.7596 -0.1432
  194POPC  H18R 8937   0.351   5.062   4.878  1.8528 -1.6335 -1.3251
  194POPC  H18S 8938   0.311   5.231   4.854 -1.0736 -2.0501  1.7138
  194POPC  H18T 8939   0.417   5.154   4.728  0.7402 -1.8166  0.3349
  194POPC   C33 8940   0.406   5.095   3.674 -0.5215  0.6942  0.1826
  194POPC   H3X 8941   0.349   5.045   3.592  2.4261  0.5479 -1.9339
  194POPC   H3Y 8942   0.337   5.114   3.759  1.0802  4.6331  0.8205
  194POPC   C34 8943   0.503   4.990   3.718  0.1626  0.1206  0.4259
  194POPC   H4X 8944   0.574   5.042   3.786  0.3779  1.3546 -0.7103
  194POPC   H4Y 8945   0.555   4.964   3.623 -0.8400 -0.3267 -0.0130
  194POPC   C35 8946   0.447   4.863   3.779  0.8585  0.8863 -0.0464
  194POPC   H5X 8947   0.535   4.796   3.795  2.3771  2.7315 -0.2645
  194POPC   H5Y 8948   0.385   4.815   3.700  0.5278  2.6638 -0.9020
  194POPC   C36 8949   0.387   4.887   3.918  0.0722 -0.0248  0.2201
  194POPC   H6X 8950   0.286   4.931   3.921 -1.1866 -2.7677  0.9143
  194POPC   H6Y 8951   0.451   4.958   3.976 -1.5770  1.5103  0.2443
  194POPC   C37 8952   0.378   4.754   3.995 -0.0084  0.4446  0.7950
  194POPC   H7X 8953   0.480   4.713   4.012  0.4252  2.0739  2.4290
  194POPC   H7Y 8954   0.320   4.684   3.931  2.8698 -0.1787 -1.3519
  194POPC   C38 8955   0.321   4.790   4.129 -0.3718 -0.0346 -1.0291
  194POPC   H8X 8956   0.244   4.867   4.108  0.6039  1.5033  0.7288
  194POPC   H8Y 8957   0.394   4.845   4.191 -0.3333 -1.6154  0.4220
  194POPC   C39 8958   0.259   4.672   4.203  0.5156  0.6446 -0.4953
  194POPC   H9X 8959   0.314   4.578   4.178  0.7448  0.2708  1.2559
  194POPC   H9Y 8960   0.161   4.641   4.160 -0.1691  0.4192  1.1496
  194POPC  C310 8961   0.247   4.693   4.356  0.0938  0.0778  0.2514
  194POPC  H10X 8962   0.180   4.780   4.369  0.1109  0.4547 -1.8607
  194POPC  H10Y 8963   0.351   4.724   4.382  1.7744 -2.5657 -2.5108
  194POPC  C311 8964   0.196   4.565   4.438  0.1788  0.4808 -0.0868
  194POPC  H11X 8965   0.108   4.525   4.384 -0.3598 -1.4312  2.0446
  194POPC  H11Y 8966   0.159   4.592   4.539  0.0861  1.0083 -0.2570
  194POPC  C312 8967   0.314   4.460   4.460 -0.0539 -0.8295  0.4154
  194POPC  H12X 8968   0.402   4.505   4.510 -0.6378 -0.3546  1.0209
  194POPC  H12Y 8969   0.357   4.422   4.364 -1.0616  0.7363 -0.7112
  194POPC  C313 8970   0.266   4.339   4.549 -0.1718 -0.0132 -0.3110
  194POPC  H13X 8971   0.188   4.277   4.502  1.1409 -0.2480 -2.2830
  194POPC  H13Y 8972   0.227   4.375   4.647  0.0562  1.6545 -0.8046
  194POPC  C314 8973   0.389   4.250   4.568 -0.5794  0.2371 -0.2118
  194POPC  H14X 8974   0.473   4.305   4.617 -0.1239 -0.6521  0.0356
  194POPC  H14Y 8975   0.417   4.199   4.473 -0.2046 -1.7842  0.9324
  194POPC  C315 8976   0.347   4.127   4.646 -0.0067  0.1351  0.0382
  194POPC  H15X 8977   0.278   4.067   4.583 -1.8622  1.9110  0.2733
  194POPC  H15Y 8978   0.288   4.156   4.735  0.4574 -0.8831  0.6962
  194POPC  C316 8979   0.463   4.052   4.700  0.3119 -0.2961 -0.4020
  194POPC  H16X 8980   0.536   4.036   4.618  0.7382 -0.6662  0.0356
  194POPC  H16Y 8981   0.438   3.952   4.743  0.9288 -0.5597 -0.6325
  194POPC  H16Z 8982   0.517   4.112   4.776 -2.0018  1.9381 -0.4010
  195POPC     N 8983   4.509   0.247   2.826 -0.8372 -0.5275 -0.1296
  195POPC   C12 8984   4.499   0.341   2.706  0.5317  0.3183  0.2623
  195POPC  H12A 8985   4.426   0.420   2.720  0.8589  1.1702 -2.3525
  195POPC  H12B 8986   4.460   0.273   2.632  0.1051 -0.0430  0.8074
  195POPC   C13 8987   4.530   0.320   2.956 -0.0082  0.3071  0.3906
  195POPC  H13A 8988   4.564   0.259   3.039  1.4338  0.1681 -0.2725
  195POPC  H13B 8989   4.611   0.389   2.937  0.2266 -0.2927 -0.8625
  195POPC  H13C 8990   4.448   0.383   2.986  0.3457 -0.2707  2.8366
  195POPC   C14 8991   4.374   0.170   2.835 -0.4236 -0.0445 -0.0011
  195POPC  H14A 8992   4.394   0.088   2.902  0.7048 -0.1475 -0.4380
  195POPC  H14B 8993   4.312   0.248   2.877 -0.0616 -0.5470  1.5392
  195POPC  H14C 8994   4.326   0.139   2.743  1.0131  0.6556 -1.0334
  195POPC   C15 8995   4.615   0.142   2.815 -0.2446 -0.0823 -0.2301
  195POPC  H15A 8996   4.623   0.088   2.722  0.6295 -1.0125  0.3592
  195POPC  H15B 8997   4.603   0.064   2.889 -0.1951 -0.1401 -0.2826
  195POPC  H15C 8998   4.713   0.180   2.843 -0.5074  1.8760 -1.7125
  195POPC   C11 8999   4.620   0.403   2.640  0.4523  0.0267  0.3918
  195POPC  H11A 9000   4.578   0.451   2.549 -1.1356 -0.0485  1.0502
  195POPC  H11B 9001   4.692   0.323   2.611  0.8748 -0.3696  2.3450
  195POPC     P 9002   4.775   0.611   2.678 -0.0930  0.1792 -0.2486
  195POPC   O13 9003   4.699   0.723   2.617 -0.9501  0.0684  0.5527
  195POPC   O14 9004   4.883   0.550   2.596  0.0558 -0.4864 -0.0981
  195POPC   O12 9005   4.677   0.502   2.731 -0.7384 -0.2300 -0.3751
  195POPC   O11 9006   4.840   0.668   2.813 -0.6929  0.3721  0.1459
  195POPC    C1 9007   4.758   0.699   2.931  0.7000  0.7886  0.0425
  195POPC    HA 9008   4.667   0.635   2.933  1.9945 -1.1198  0.5767
  195POPC    HB 9009   4.718   0.803   2.930  0.4583  0.7003 -0.6899
  195POPC    C2 9010   4.830   0.674   3.060  0.4754 -0.1707 -0.4862
  195POPC    HS 9011   4.770   0.721   3.140 -0.3529 -1.2709 -0.4386
  195POPC   O21 9012   4.954   0.730   3.064  0.3268 -0.3260 -0.2047
  195POPC   C21 9013   4.960   0.856   3.112 -0.1445  0.3730 -0.5896
  195POPC   O22 9014   4.864   0.927   3.151 -0.0846  0.1613 -0.5463
  195POPC   C22 9015   5.109   0.902   3.093 -0.0820  0.2997  0.1286
  195POPC   H2R 9016   5.115   0.925   2.984 -1.7652 -1.2250 -0.3416
  195POPC   H2S 9017   5.183   0.820   3.106 -1.0210 -0.2268  2.7340
  195POPC    C3 9018   4.831   0.529   3.096 -0.2657  0.6582  0.6217
  195POPC    HX 9019   4.917   0.484   3.042 -0.8976  1.0493 -0.7365
  195POPC    HY 9020   4.751   0.468   3.048  1.2961 -0.3171 -0.8721
  195POPC   O31 9021   4.869   0.500   3.230 -1.1234  0.3931 -0.6847
  195POPC   C31 9022   4.766   0.518   3.304  0.7116  0.2081  0.1530
  195POPC   O32 9023   4.653   0.550   3.262 -0.4272 -0.0898  0.3090
  195POPC   C32 9024   4.794   0.478   3.454  0.9393  0.0961  0.3695
  195POPC   H2X 9025   4.845   0.562   3.505 -1.0054  2.0122 -0.6781
  195POPC   H2Y 9026   4.864   0.392   3.451 -0.0833 -0.7446 -0.6359
  195POPC   C23 9027   5.148   1.029   3.162  0.3764 -0.1987 -0.4187
  195POPC   H3R 9028   5.069   1.101   3.132  0.8981  0.7490  0.4023
  195POPC   H3S 9029   5.246   1.063   3.124 -0.1082  1.6644 -0.1443
  195POPC   C24 9030   5.146   1.016   3.316  0.0226 -0.2899  0.5813
  195POPC   H4R 9031   5.055   0.964   3.353 -0.6997  0.6798  0.1822
  195POPC   H4S 9032   5.148   1.122   3.349 -0.6508 -0.7535  2.2035
  195POPC   C25 9033   5.266   0.939   3.370  0.9752 -0.4554  0.8873
  195POPC   H5R 9034   5.350   0.972   3.306 -1.0675 -0.4464 -1.9658
  195POPC   H5S 9035   5.242   0.832   3.352 -0.2782  0.1656 -1.5552
  195POPC   C26 9036   5.296   0.960   3.517 -0.2562  0.4090  0.1727
  195POPC   H6R 9037   5.381   0.892   3.540 -0.4596  0.0535 -0.1166
  195POPC   H6S 9038   5.207   0.929   3.575  0.6264 -0.8160  0.9205
  195POPC   C27 9039   5.326   1.107   3.551  0.0317 -0.5294 -0.0733
  195POPC   H7R 9040   5.245   1.178   3.522  2.4227  1.8405 -1.4216
  195POPC   H7S 9041   5.415   1.142   3.494 -0.1594  1.7257  0.8895
  195POPC   C28 9042   5.354   1.127   3.702  1.0659 -0.5359 -0.5618
  195POPC   H8R 9043   5.436   1.201   3.712  1.7367 -1.1699 -1.3139
  195POPC   H8S 9044   5.410   1.035   3.731  1.6649 -0.5206 -1.6493
  195POPC   C29 9045   5.239   1.151   3.799  0.5223 -0.7564 -0.6821
  195POPC   H91 9046   5.175   1.239   3.782  3.0093  1.1880 -0.5439
  195POPC  C210 9047   5.191   1.062   3.888  0.3632 -0.8489  0.1748
  195POPC  H101 9048   5.104   1.087   3.951  0.8476 -1.1213  0.9667
  195POPC  C211 9049   5.232   0.921   3.916  0.1286 -0.0642 -0.2860
  195POPC  H11R 9050   5.285   0.874   3.830  3.0293 -0.7215  1.7254
  195POPC  H11S 9051   5.135   0.870   3.934 -0.3993  0.0668 -2.4487
  195POPC  C212 9052   5.329   0.917   4.044 -0.3449 -0.5332 -0.2342
  195POPC  H12R 9053   5.357   0.811   4.062 -1.0741 -0.9632 -1.5213
  195POPC  H12S 9054   5.258   0.943   4.125 -1.6045  1.3352 -1.8426
  195POPC  C213 9055   5.458   1.001   4.039 -0.2766  0.1955 -0.0338
  195POPC  H13R 9056   5.437   1.110   4.042 -2.5367 -0.1697 -0.6876
  195POPC  H13S 9057   5.503   0.993   3.937  0.2685 -0.3188  0.2435
  195POPC  C214 9058   5.570   0.949   4.134  0.4144  0.0428 -0.8069
  195POPC  H14R 9059   5.670   0.986   4.104 -1.8161  3.7171 -5.0171
  195POPC  H14S 9060   5.561   0.838   4.125  2.0844 -0.1577 -0.3055
  195POPC  C215 9061   5.544   0.980   4.281 -0.0938  0.0937  0.0322
  195POPC  H15R 9062   5.589   0.903   4.347 -0.9116 -1.0516 -0.7200
  195POPC  H15S 9063   5.438   0.985   4.313  0.1936  0.3223  0.9565
  195POPC  C216 9064   5.600   1.114   4.318  0.1770 -0.2878 -0.7426
  195POPC  H16R 9065   5.553   1.195   4.257 -0.5493 -0.1578 -0.0182
  195POPC  H16S 9066   5.710   1.117   4.306  0.5944  0.1278  2.3790
  195POPC  C217 9067   5.590   1.161   4.460  0.0832  0.4338 -0.3405
  195POPC  H17R 9068   5.485   1.165   4.496  0.5464  1.5973  0.9692
  195POPC  H17S 9069   5.630   1.265   4.459  2.7759 -0.5330 -1.2350
  195POPC  C218 9070   5.668   1.071   4.556  0.3916 -0.2408  0.1811
  195POPC  H18R 9071   5.663   1.109   4.660 -1.6832 -1.3221  0.5320
  195POPC  H18S 9072   5.771   1.067   4.516 -0.3573 -2.0004 -1.7685
  195POPC  H18T 9073   5.623   0.969   4.547  1.3271 -0.5898 -0.8325
  195POPC   C33 9074   4.661   0.434   3.522 -1.0213 -0.0576  0.5920
  195POPC   H3X 9075   4.603   0.364   3.458  1.0219 -0.4739 -0.8702
  195POPC   H3Y 9076   4.589   0.517   3.539  0.2283  1.4897 -1.2890
  195POPC   C34 9077   4.698   0.359   3.646  0.2907 -0.2806 -0.4280
  195POPC   H4X 9078   4.762   0.271   3.620 -0.1237 -0.5280 -0.6295
  195POPC   H4Y 9079   4.614   0.317   3.705  0.1027  1.3489  0.5099
  195POPC   C35 9080   4.788   0.435   3.749  0.3148 -0.0397  0.1359
  195POPC   H5X 9081   4.763   0.543   3.740  1.5492  0.0979 -2.2593
  195POPC   H5Y 9082   4.893   0.422   3.717 -0.2322  1.5094 -2.5650
  195POPC   C36 9083   4.754   0.402   3.895  0.1711 -0.6331 -0.5184
  195POPC   H6X 9084   4.765   0.292   3.907 -1.7595 -0.7119  0.9014
  195POPC   H6Y 9085   4.646   0.421   3.913  0.4093  0.4095 -0.1139
  195POPC   C37 9086   4.838   0.473   4.002  0.2533  0.7621  0.4072
  195POPC   H7X 9087   4.823   0.583   4.002 -0.2282  0.6960  0.8075
  195POPC   H7Y 9088   4.945   0.449   3.984  0.4076  1.0865  0.8856
  195POPC   C38 9089   4.784   0.432   4.140  0.5393 -0.2584 -0.3119
  195POPC   H8X 9090   4.704   0.355   4.137 -2.3678  2.5306 -0.5771
  195POPC   H8Y 9091   4.719   0.519   4.164 -2.0894 -1.6485 -1.8965
  195POPC   C39 9092   4.900   0.418   4.238  0.1390  0.0400 -0.8536
  195POPC   H9X 9093   4.957   0.513   4.235  0.8637 -0.3384  0.3753
  195POPC   H9Y 9094   4.959   0.332   4.199 -1.1547  0.1115 -3.1701
  195POPC  C310 9095   4.860   0.379   4.383  0.3774  0.2655 -0.0224
  195POPC  H10X 9096   4.790   0.452   4.429 -1.6166 -1.9924  0.7263
  195POPC  H10Y 9097   4.954   0.381   4.442 -0.5236 -1.5646  1.6090
  195POPC  C311 9098   4.805   0.240   4.392 -0.2584 -0.7434 -0.0712
  195POPC  H11X 9099   4.868   0.165   4.339 -0.2688 -3.2117  3.1352
  195POPC  H11Y 9100   4.704   0.218   4.352 -1.1578  0.1764  1.5812
  195POPC  C312 9101   4.802   0.191   4.533 -0.1930 -0.6121  0.1859
  195POPC  H12X 9102   4.900   0.220   4.576 -0.9509  1.7232  0.4604
  195POPC  H12Y 9103   4.785   0.082   4.546  0.9196 -1.1450 -2.3682
  195POPC  C313 9104   4.696   0.268   4.615 -0.2992  0.3919  0.1217
  195POPC  H13X 9105   4.603   0.263   4.555  0.6724  2.2593 -1.6935
  195POPC  H13Y 9106   4.732   0.373   4.617  2.4625 -0.3316 -2.6838
  195POPC  C314 9107   4.677   0.210   4.752 -0.1137  0.4765  0.2190
  195POPC  H14X 9108   4.776   0.188   4.799 -1.3517 -2.1548  1.7879
  195POPC  H14Y 9109   4.644   0.107   4.729  1.6520 -0.0393 -0.2184
  195POPC  C315 9110   4.578   0.284   4.842 -0.3506  0.1924  0.0520
  195POPC  H15X 9111   4.628   0.382   4.853  0.8482 -0.4280  0.3556
  195POPC  H15Y 9112   4.573   0.234   4.941  1.5228  0.8728  0.5343
  195POPC  C316 9113   4.439   0.308   4.785  0.0124 -0.4272  0.2585
  195POPC  H16X 9114   4.368   0.364   4.849 -2.3802 -2.3511 -0.5471
  195POPC  H16Y 9115   4.389   0.209   4.777 -1.5883  0.0784  2.8166
  195POPC  H16Z 9116   4.450   0.368   4.692 -0.3192  2.9465  2.2232
  196POPC     N 9117   1.072   0.777   2.680 -0.4569  0.1811  1.0437
  196POPC   C12 9118   0.957   0.802   2.790  0.4994  0.0771  0.0636
  196POPC  H12A 9119   0.997   0.770   2.885 -1.6044  2.2864  1.8322
  196POPC  H12B 9120   0.876   0.733   2.770 -0.3814  0.3771  2.2872
  196POPC   C13 9121   1.015   0.795   2.541 -0.0266 -1.1014 -0.6663
  196POPC  H13A 9122   0.925   0.738   2.525 -0.4373 -1.2132  1.7382
  196POPC  H13B 9123   1.002   0.901   2.523  0.9978 -0.7607  0.4630
  196POPC  H13C 9124   1.089   0.759   2.471  1.2423  1.8788 -1.0356
  196POPC   C14 9125   1.178   0.892   2.694  0.9183  0.0069 -0.0190
  196POPC  H14A 9126   1.135   0.990   2.679  2.7730  1.3052  2.3277
  196POPC  H14B 9127   1.215   0.893   2.795  2.6465  2.7037 -0.5531
  196POPC  H14C 9128   1.255   0.880   2.619  0.8508  0.9661 -0.2659
  196POPC   C15 9129   1.145   0.654   2.701 -0.4573 -0.2576 -0.0040
  196POPC  H15A 9130   1.079   0.570   2.683 -3.2546  1.7498  0.2295
  196POPC  H15B 9131   1.200   0.640   2.793  1.4166 -0.3000 -1.0861
  196POPC  H15C 9132   1.225   0.648   2.629  0.0853  0.5231  0.5130
  196POPC   C11 9133   0.888   0.940   2.813  0.1446  0.6491 -0.7830
  196POPC  H11A 9134   0.958   1.013   2.860  1.3177 -1.6621  1.2763
  196POPC  H11B 9135   0.812   0.927   2.893  1.2904  1.0573  0.4000
  196POPC     P 9136   0.882   1.104   2.605  0.2153 -0.3250 -0.0372
  196POPC   O13 9137   0.869   1.071   2.463 -0.1728 -0.1817  0.1195
  196POPC   O14 9138   1.024   1.145   2.643  0.0226 -0.2170 -0.4955
  196POPC   O12 9139   0.831   0.991   2.695  0.3195 -0.2018 -0.6658
  196POPC   O11 9140   0.776   1.224   2.619  0.0416  0.0896 -0.1345
  196POPC    C1 9141   0.714   1.268   2.744 -0.2923 -0.1324  0.0123
  196POPC    HA 9142   0.756   1.363   2.782  1.1266 -1.1196  1.0398
  196POPC    HB 9143   0.719   1.195   2.828 -0.9446  2.2212  2.2147
  196POPC    C2 9144   0.551   1.272   2.728  0.1708  0.2366  0.1104
  196POPC    HS 9145   0.528   1.316   2.629  0.2423  2.1849  0.9105
  196POPC   O21 9146   0.490   1.355   2.832  0.0006 -0.5183  0.3075
  196POPC   C21 9147   0.514   1.490   2.816  0.7556  0.5627 -1.2879
  196POPC   O22 9148   0.562   1.539   2.719 -0.1228 -0.6826 -0.4134
  196POPC   C22 9149   0.457   1.564   2.928  0.2729  0.1160 -0.6089
  196POPC   H2R 9150   0.433   1.519   3.027  2.0612  0.9453  0.2450
  196POPC   H2S 9151   0.355   1.589   2.890 -0.9504 -1.1189  1.6458
  196POPC    C3 9152   0.491   1.134   2.733  0.1930  0.0328 -0.4772
  196POPC    HX 9153   0.545   1.058   2.671 -1.7050 -1.8414  0.0517
  196POPC    HY 9154   0.387   1.145   2.696 -0.3055  0.3797  0.9701
  196POPC   O31 9155   0.481   1.077   2.870  0.0377  0.5310  0.0859
  196POPC   C31 9156   0.403   0.973   2.884  0.1986  0.7663 -0.4652
  196POPC   O32 9157   0.346   0.904   2.794 -0.1331  0.2843 -0.6731
  196POPC   C32 9158   0.396   0.926   3.033  0.1963 -0.4868  0.2438
  196POPC   H2X 9159   0.424   1.009   3.101 -2.4596  2.0561 -1.5717
  196POPC   H2Y 9160   0.469   0.842   3.039 -0.2409 -0.8756  0.2618
  196POPC   C23 9161   0.524   1.704   2.965  0.4689 -0.0817  0.1456
  196POPC   H3R 9162   0.452   1.771   3.017  0.6270  2.0227 -2.1553
  196POPC   H3S 9163   0.560   1.752   2.871 -0.1336 -0.7739 -0.4538
  196POPC   C24 9164   0.649   1.678   3.050 -0.4085 -0.1980 -0.0229
  196POPC   H4R 9165   0.700   1.776   3.062 -1.5068  0.7225 -2.2276
  196POPC   H4S 9166   0.719   1.610   2.997  1.2057  1.9432 -0.7609
  196POPC   C25 9167   0.613   1.628   3.191  0.7834  0.4500 -0.6954
  196POPC   H5R 9168   0.576   1.523   3.186 -0.2381  0.8054 -0.9692
  196POPC   H5S 9169   0.540   1.696   3.239 -0.0013 -1.3937  0.8906
  196POPC   C26 9170   0.742   1.635   3.273  0.2620 -0.2277 -0.4832
  196POPC   H6R 9171   0.776   1.740   3.258 -1.1371  0.1257 -1.3610
  196POPC   H6S 9172   0.822   1.567   3.238  1.0633 -0.0492  0.9092
  196POPC   C27 9173   0.729   1.611   3.426  0.1702 -0.4452  0.9789
  196POPC   H7R 9174   0.685   1.510   3.445  0.8832 -0.7570  1.0111
  196POPC   H7S 9175   0.653   1.682   3.465  0.7370 -0.0630  1.4049
  196POPC   C28 9176   0.857   1.630   3.497 -0.4592  0.1135  0.7636
  196POPC   H8R 9177   0.900   1.730   3.475  0.7930  0.0927  2.9165
  196POPC   H8S 9178   0.932   1.562   3.451  1.0023  2.6564 -0.8762
  196POPC   C29 9179   0.834   1.618   3.644  0.3414  0.1324  0.0080
  196POPC   H91 9180   0.801   1.705   3.704 -1.2675 -0.4571  0.0249
  196POPC  C210 9181   0.842   1.504   3.713 -0.0852  0.1113  0.3224
  196POPC  H101 9182   0.829   1.505   3.822  0.0530 -1.0299  0.3615
  196POPC  C211 9183   0.896   1.367   3.664 -0.2881 -0.3387 -0.8206
  196POPC  H11R 9184   0.848   1.332   3.570  0.4404  0.9068 -1.6688
  196POPC  H11S 9185   0.858   1.299   3.744 -1.0360  1.2803  0.2708
  196POPC  C212 9186   1.048   1.352   3.649 -0.0885 -0.5172  0.3168
  196POPC  H12R 9187   1.082   1.403   3.556  1.6732 -3.2662 -0.6698
  196POPC  H12S 9188   1.077   1.245   3.649 -1.0179 -0.7971 -1.6063
  196POPC  C213 9189   1.130   1.411   3.767  0.1114  0.2667  0.1497
  196POPC  H13R 9190   1.107   1.519   3.777  1.7072  0.4736  2.1968
  196POPC  H13S 9191   1.235   1.379   3.750  0.0574  0.5080 -0.6775
  196POPC  C214 9192   1.091   1.343   3.899 -0.1665 -0.2298 -0.1344
  196POPC  H14R 9193   1.074   1.234   3.891 -0.3041 -0.1168 -2.0629
  196POPC  H14S 9194   0.994   1.387   3.932  0.0479 -1.2956  2.0725
  196POPC  C215 9195   1.192   1.352   4.013  0.6141  0.4410  0.1074
  196POPC  H15R 9196   1.228   1.456   4.022  3.8196 -0.3991 -1.6625
  196POPC  H15S 9197   1.287   1.298   3.999  2.2283  3.1029  0.1495
  196POPC  C216 9198   1.141   1.312   4.143  0.1401  0.4898  0.0029
  196POPC  H16R 9199   1.112   1.205   4.137 -2.3298  1.1579 -1.4547
  196POPC  H16S 9200   1.051   1.372   4.168 -0.8782 -1.1834  0.5656
  196POPC  C217 9201   1.256   1.324   4.252  0.0995  0.5370 -0.0174
  196POPC  H17R 9202   1.328   1.245   4.223 -2.7195 -1.0548 -3.4332
  196POPC  H17S 9203   1.223   1.287   4.351  0.7824 -1.5866 -0.5298
  196POPC  C218 9204   1.321   1.462   4.267 -0.1904 -0.2032  0.4176
  196POPC  H18R 9205   1.350   1.512   4.172 -1.3501 -0.6345 -0.1914
  196POPC  H18S 9206   1.417   1.445   4.320  1.5415 -1.1830 -2.7492
  196POPC  H18T 9207   1.260   1.529   4.332 -0.7647  1.0677 -1.3515
  196POPC   C33 9208   0.252   0.881   3.064 -0.0185  0.2073  1.1857
  196POPC   H3X 9209   0.229   0.792   3.001 -1.5562  3.3637 -3.1432
  196POPC   H3Y 9210   0.176   0.958   3.039  0.6082  0.0680 -1.3224
  196POPC   C34 9211   0.232   0.844   3.210  0.3066  0.0298  0.1797
  196POPC   H4X 9212   0.274   0.925   3.275 -1.4468 -1.2064  3.0699
  196POPC   H4Y 9213   0.295   0.753   3.219  3.6167  1.8889 -2.0175
  196POPC   C35 9214   0.092   0.817   3.258 -0.0272 -0.2986 -0.6998
  196POPC   H5X 9215   0.036   0.744   3.197  0.1588 -0.4417 -0.6997
  196POPC   H5Y 9216   0.038   0.914   3.246  0.4635 -0.2235 -2.7019
  196POPC   C36 9217   0.082   0.761   3.402  0.1212  0.0048  0.5647
  196POPC   H6X 9218   0.140   0.666   3.404 -1.0232 -0.7634 -0.8126
  196POPC   H6Y 9219  -0.025   0.732   3.410  0.3660 -0.8934  0.7491
  196POPC   C37 9220   0.116   0.852   3.514  0.1339  0.2400  0.6984
  196POPC   H7X 9221   0.085   0.955   3.487  0.1822  0.4920  1.5683
  196POPC   H7Y 9222   0.227   0.846   3.513  0.1150 -0.4958 -1.0089
  196POPC   C38 9223   0.068   0.804   3.656 -0.3105  0.6279 -0.9000
  196POPC   H8X 9224   0.127   0.711   3.673  2.1518  1.9123 -1.8955
  196POPC   H8Y 9225  -0.036   0.765   3.647 -0.8434  1.4344  1.2789
  196POPC   C39 9226   0.086   0.904   3.763 -0.1828 -0.1712 -0.3924
  196POPC   H9X 9227  -0.000   0.973   3.775 -1.0664 -0.9448 -2.0191
  196POPC   H9Y 9228   0.175   0.960   3.727 -0.4148 -0.8471 -2.1225
  196POPC  C310 9229   0.119   0.834   3.895 -0.4183 -0.2127  0.4301
  196POPC  H10X 9230   0.209   0.771   3.874 -1.6511 -1.8851 -0.0596
  196POPC  H10Y 9231   0.034   0.774   3.934 -0.0746  0.5910  2.5361
  196POPC  C311 9232   0.145   0.945   4.001 -0.2377  0.0172 -0.2497
  196POPC  H11X 9233   0.056   1.008   4.019 -1.4553 -2.0636  1.4687
  196POPC  H11Y 9234   0.231   1.002   3.958  0.4565  0.5484  1.7508
  196POPC  C312 9235   0.179   0.899   4.143  0.1598  0.5753 -0.0499
  196POPC  H12X 9236   0.092   0.844   4.184  1.6168 -0.0756  2.3620
  196POPC  H12Y 9237   0.205   0.991   4.200  2.0936  1.9507 -2.9539
  196POPC  C313 9238   0.301   0.808   4.148  0.7764  0.2528  0.0335
  196POPC  H13X 9239   0.384   0.842   4.082  1.0958  1.1944  0.8921
  196POPC  H13Y 9240   0.272   0.710   4.105 -2.0605  0.7103  0.6837
  196POPC  C314 9241   0.361   0.774   4.281 -0.4539  0.0300  0.7717
  196POPC  H14X 9242   0.457   0.721   4.259 -0.4748  0.4857 -0.4760
  196POPC  H14Y 9243   0.296   0.713   4.347 -0.1662 -0.3832  0.6796
  196POPC  C315 9244   0.406   0.908   4.334  0.7643 -0.3385 -0.3992
  196POPC  H15X 9245   0.320   0.965   4.375  0.6971  0.0005 -1.0043
  196POPC  H15Y 9246   0.444   0.975   4.255 -3.0331  0.3402 -1.8964
  196POPC  C316 9247   0.507   0.891   4.448 -0.0085 -0.1900 -0.4081
  196POPC  H16X 9248   0.473   0.827   4.531  1.9144 -0.3639  0.2920
  196POPC  H16Y 9249   0.527   0.989   4.497 -2.3571 -0.4256  1.1801
  196POPC  H16Z 9250   0.603   0.850   4.411  0.5510 -1.4677  2.2275
  197POPC     N 9251   0.967   4.803   2.898  0.1146  0.8197 -0.1374
  197POPC   C12 9252   0.946   4.840   3.038 -0.3103 -0.5680 -0.2806
  197POPC  H12A 9253   0.843   4.839   3.069  0.4803  0.3912  2.7079
  197POPC  H12B 9254   0.970   4.943   3.056 -2.6602 -0.0751  0.2979
  197POPC   C13 9255   0.908   4.902   2.803  0.1247  0.5300  0.2842
  197POPC  H13A 9256   0.800   4.895   2.807  0.0074  2.1891  0.9490
  197POPC  H13B 9257   0.943   5.001   2.828  2.8036 -0.1726 -0.4096
  197POPC  H13C 9258   0.933   4.885   2.699  0.6327 -0.2267  0.5238
  197POPC   C14 9259   1.114   4.790   2.868 -0.0588 -0.2382  0.0903
  197POPC  H14A 9260   1.154   4.700   2.911  0.4404 -0.7616 -1.3996
  197POPC  H14B 9261   1.116   4.790   2.760  0.0328  0.0687  0.0900
  197POPC  H14C 9262   1.172   4.870   2.912 -0.2239 -0.5844  0.9563
  197POPC   C15 9263   0.901   4.671   2.864  0.4637  0.3580 -0.5141
  197POPC  H15A 9264   0.797   4.664   2.891  0.6775 -1.3473 -0.0003
  197POPC  H15B 9265   0.938   4.583   2.915 -1.2313 -0.1222 -0.0301
  197POPC  H15C 9266   0.906   4.652   2.757 -2.2575  1.5766 -0.9384
  197POPC   C11 9267   1.029   4.763   3.161 -0.4626 -0.1366 -0.3524
  197POPC  H11A 9268   0.994   4.816   3.253 -0.7940 -0.7865 -0.0994
  197POPC  H11B 9269   1.138   4.777   3.148 -0.5517 -1.2207 -2.6945
  197POPC     P 9270   1.087   4.503   3.138 -0.0605 -0.1068 -0.3419
  197POPC   O13 9271   1.222   4.551   3.105 -0.4005  0.4103  0.4227
  197POPC   O14 9272   1.020   4.413   3.044 -0.3946  0.0015 -0.7559
  197POPC   O12 9273   0.991   4.626   3.170  0.0587  0.2374 -0.5175
  197POPC   O11 9274   1.097   4.422   3.276  0.2765  0.1522  0.0093
  197POPC    C1 9275   1.004   4.441   3.384 -0.0235 -0.3429 -0.6661
  197POPC    HA 9276   0.907   4.486   3.354 -0.8791 -0.3831  1.8488
  197POPC    HB 9277   1.053   4.514   3.453  1.8590  0.6227 -2.8891
  197POPC    C2 9278   0.971   4.309   3.471 -0.2112  0.8511  0.2891
  197POPC    HS 9279   0.883   4.334   3.535  1.4009  0.3984  2.8585
  197POPC   O21 9280   1.086   4.272   3.553 -0.0918  0.5097  0.1426
  197POPC   C21 9281   1.105   4.349   3.660  0.3341 -0.6957 -0.5697
  197POPC   O22 9282   1.024   4.433   3.704 -0.0479 -0.1036 -0.2804
  197POPC   C22 9283   1.240   4.310   3.712 -0.2865  0.3549 -0.1108
  197POPC   H2R 9284   1.319   4.306   3.634  1.4313  1.2786  1.4834
  197POPC   H2S 9285   1.237   4.214   3.769  0.4658  0.5952  0.3583
  197POPC    C3 9286   0.939   4.190   3.378 -0.1009 -0.0305  0.2915
  197POPC    HX 9287   1.023   4.184   3.306  0.6915  2.3028  0.9322
  197POPC    HY 9288   0.845   4.219   3.325 -0.4621 -0.0900  0.8843
  197POPC   O31 9289   0.903   4.067   3.448 -0.1312  0.1720 -0.2850
  197POPC   C31 9290   0.974   3.955   3.434  0.1859  0.6742 -0.2507
  197POPC   O32 9291   1.065   3.949   3.357  0.2738  0.1603  0.2017
  197POPC   C32 9292   0.935   3.843   3.532 -0.1448  0.8060 -0.0685
  197POPC   H2X 9293   0.946   3.748   3.477 -3.8671  0.1888 -0.0072
  197POPC   H2Y 9294   0.829   3.848   3.565  0.2590  0.0433  1.4759
  197POPC   C23 9295   1.287   4.427   3.810 -0.1763  0.1206  0.4445
  197POPC   H3R 9296   1.203   4.445   3.881 -0.1943  0.9143  0.2289
  197POPC   H3S 9297   1.306   4.517   3.748 -1.2299 -1.7144 -2.7982
  197POPC   C24 9298   1.403   4.380   3.893  0.1213  0.9191  0.1042
  197POPC   H4R 9299   1.487   4.348   3.828 -1.1856 -1.5329 -0.5253
  197POPC   H4S 9300   1.367   4.287   3.942  1.8717  1.1591  1.9303
  197POPC   C25 9301   1.458   4.486   3.990 -0.3030 -0.2257  0.1548
  197POPC   H5R 9302   1.362   4.528   4.028 -0.2694 -2.1774  2.6851
  197POPC   H5S 9303   1.507   4.572   3.939 -0.0794  0.5751  1.6482
  197POPC   C26 9304   1.546   4.444   4.103  0.1844  1.2222  0.1936
  197POPC   H6R 9305   1.495   4.357   4.150 -0.1252  1.1760 -0.2146
  197POPC   H6S 9306   1.558   4.521   4.182 -0.0156  0.6656  0.7751
  197POPC   C27 9307   1.689   4.409   4.057  0.5403 -0.6038 -1.0174
  197POPC   H7R 9308   1.728   4.501   4.008 -0.3525  0.0430 -0.5286
  197POPC   H7S 9309   1.685   4.322   3.988  0.0197 -1.0887 -0.3825
  197POPC   C28 9310   1.772   4.381   4.187  0.5196  0.5109  0.0006
  197POPC   H8R 9311   1.732   4.291   4.238  0.8275  0.7287  0.6354
  197POPC   H8S 9312   1.759   4.459   4.265  1.4417 -0.0722  0.7610
  197POPC   C29 9313   1.927   4.371   4.177  0.0190  0.2242  0.2220
  197POPC   H91 9314   1.981   4.442   4.241  0.8223  0.2653 -0.4840
  197POPC  C210 9315   2.004   4.305   4.090 -0.2300 -0.3758 -0.0381
  197POPC  H101 9316   2.112   4.321   4.102  0.3431 -1.2270 -3.2321
  197POPC  C211 9317   1.960   4.222   3.966 -0.0614  0.2009 -0.3307
  197POPC  H11R 9318   2.040   4.216   3.889 -0.5054 -3.4219 -0.6812
  197POPC  H11S 9319   1.863   4.251   3.921 -0.6827 -3.0540 -1.4004
  197POPC  C212 9320   1.944   4.084   4.016 -0.2575  0.0658  0.2891
  197POPC  H12R 9321   1.899   4.021   3.937  1.4622 -2.2855  1.1017
  197POPC  H12S 9322   1.879   4.083   4.107 -2.4428 -0.7861 -1.2007
  197POPC  C213 9323   2.074   4.016   4.057  0.4401  0.1861  0.4494
  197POPC  H13R 9324   2.123   4.059   4.147 -0.2151  1.7070  0.1081
  197POPC  H13S 9325   2.136   4.041   3.968 -3.2651  0.2355 -2.3939
  197POPC  C214 9326   2.067   3.864   4.065 -0.2886 -0.3463 -0.0126
  197POPC  H14R 9327   2.173   3.831   4.072 -0.3432 -0.4745  0.2116
  197POPC  H14S 9328   2.017   3.838   3.970 -1.9195 -1.4413  1.1033
  197POPC  C215 9329   1.994   3.813   4.191  1.0291 -0.3498  0.1047
  197POPC  H15R 9330   1.944   3.716   4.169 -1.5716  0.6379  1.1814
  197POPC  H15S 9331   1.912   3.880   4.226  0.4000 -2.1836  2.4208
  197POPC  C216 9332   2.083   3.799   4.316 -0.2842 -0.1074  0.1538
  197POPC  H16R 9333   2.131   3.895   4.343  0.2470  0.3994 -2.3423
  197POPC  H16S 9334   2.161   3.724   4.291 -1.0747 -1.2541  0.9690
  197POPC  C217 9335   2.019   3.732   4.435  0.1967 -0.0186 -0.0515
  197POPC  H17R 9336   1.977   3.640   4.389 -0.7553  0.1018  0.5540
  197POPC  H17S 9337   1.934   3.794   4.468  0.0339 -0.5772  0.6187
  197POPC  C218 9338   2.113   3.705   4.553  0.2259 -0.1311  0.3678
  197POPC  H18R 9339   2.208   3.761   4.570  0.9394 -0.4092 -2.2719
  197POPC  H18S 9340   2.153   3.604   4.532  1.8082  0.9861 -2.6276
  197POPC  H18T 9341   2.058   3.697   4.649 -0.3722 -0.1643  0.0230
  197POPC   C33 9342   1.014   3.844   3.665  0.3716  0.2491  0.0030
  197POPC   H3X 9343   1.124   3.844   3.653  0.2336  0.8712 -1.4329
  197POPC   H3Y 9344   0.990   3.749   3.717  1.3923 -1.1622 -1.9901
  197POPC   C34 9345   0.979   3.962   3.754 -0.3868 -0.3438 -0.7799
  197POPC   H4X 9346   0.868   3.967   3.761 -0.6010 -1.4759 -2.6874
  197POPC   H4Y 9347   1.016   4.055   3.705  0.5703 -0.0374  0.4842
  197POPC   C35 9348   1.038   3.950   3.895  1.2071  0.4327 -0.0096
  197POPC   H5X 9349   1.148   3.935   3.901  0.8021 -2.7196  1.2586
  197POPC   H5Y 9350   0.993   3.864   3.949  2.4956  1.6539  3.2163
  197POPC   C36 9351   1.009   4.076   3.976 -0.0919 -0.1528 -0.2202
  197POPC   H6X 9352   0.906   4.077   4.017  0.2674  1.6311  0.7620
  197POPC   H6Y 9353   1.021   4.164   3.909 -0.8872 -0.4043 -0.7123
  197POPC   C37 9354   1.106   4.104   4.090  0.1558  0.4400 -0.2436
  197POPC   H7X 9355   1.210   4.115   4.052  0.8983  0.8843  1.7717
  197POPC   H7Y 9356   1.105   4.018   4.160  0.4082  0.3633 -0.3334
  197POPC   C38 9357   1.077   4.236   4.159 -0.1379 -0.0535 -0.0087
  197POPC   H8X 9358   0.975   4.248   4.203 -0.0014  0.0270  0.2847
  197POPC   H8Y 9359   1.081   4.310   4.076  1.2118 -2.1011 -1.8717
  197POPC   C39 9360   1.188   4.271   4.264  0.0171  0.2803 -0.4700
  197POPC   H9X 9361   1.189   4.381   4.276 -0.3442  0.5039 -2.1612
  197POPC   H9Y 9362   1.288   4.241   4.226 -0.2729  1.0979 -1.9631
  197POPC  C310 9363   1.175   4.210   4.402 -0.6852 -0.5370 -0.1382
  197POPC  H10X 9364   1.194   4.101   4.396 -1.8806 -0.8942  1.9682
  197POPC  H10Y 9365   1.070   4.229   4.433 -0.0195  0.1015  1.8695
  197POPC  C311 9366   1.264   4.271   4.511 -0.6666  0.7171  0.3886
  197POPC  H11X 9367   1.228   4.376   4.522 -2.6690  0.2549 -1.1831
  197POPC  H11Y 9368   1.369   4.276   4.477  0.1978 -1.1480  2.5278
  197POPC  C312 9369   1.239   4.199   4.645 -0.0413 -0.2993 -0.7267
  197POPC  H12X 9370   1.260   4.092   4.623 -2.5200 -1.1584  0.6875
  197POPC  H12Y 9371   1.135   4.192   4.684  0.4235  1.0694  0.8972
  197POPC  C313 9372   1.341   4.242   4.755  1.3237 -0.4109 -0.2699
  197POPC  H13X 9373   1.311   4.340   4.799  2.7562  0.3608 -0.9574
  197POPC  H13Y 9374   1.440   4.254   4.707  2.0292  3.4444  1.7305
  197POPC  C314 9375   1.339   4.143   4.871 -0.2371 -0.0131 -0.0695
  197POPC  H14X 9376   1.387   4.051   4.831  0.0527 -0.9453  2.2746
  197POPC  H14Y 9377   1.235   4.118   4.904 -0.4372  0.7731 -0.0718
  197POPC  C315 9378   1.429   4.177   4.988  0.2166  0.4207 -0.0478
  197POPC  H15X 9379   1.429   4.095   5.062 -0.2230 -0.3279 -0.8589
  197POPC  H15Y 9380   1.393   4.267   5.041 -2.8823 -0.9544  0.3499
  197POPC  C316 9381   1.573   4.193   4.946 -0.3481 -0.4570  0.2792
  197POPC  H16X 9382   1.588   4.267   4.864  0.0552 -2.2555 -1.3684
  197POPC  H16Y 9383   1.616   4.099   4.904 -1.4216 -0.4208 -0.9847
  197POPC  H16Z 9384   1.639   4.200   5.035 -1.5293 -0.0621  1.1409
  198POPC     N 9385   1.555   1.388   2.865  0.4297  0.6442  0.2594
  198POPC   C12 9386   1.692   1.409   2.922  0.3126 -0.1286  0.0577
  198POPC  H12A 9387   1.695   1.371   3.023  1.5431 -0.7156 -0.1879
  198POPC  H12B 9388   1.696   1.514   2.946 -1.1937  0.0698 -0.4231
  198POPC   C13 9389   1.444   1.450   2.942 -1.5990 -0.4415 -0.3047
  198POPC  H13A 9390   1.448   1.418   3.045 -0.4426 -0.7692 -0.4406
  198POPC  H13B 9391   1.445   1.558   2.930 -0.0480 -0.3697  0.2186
  198POPC  H13C 9392   1.351   1.421   2.897 -0.8499 -0.3712 -1.9675
  198POPC   C14 9393   1.547   1.457   2.728  0.0901  0.2240 -0.0070
  198POPC  H14A 9394   1.577   1.560   2.740 -0.7844  0.3979  0.8184
  198POPC  H14B 9395   1.599   1.404   2.649  2.2471  2.2120 -0.0228
  198POPC  H14C 9396   1.445   1.461   2.694 -0.6303 -0.2890  1.9524
  198POPC   C15 9397   1.522   1.243   2.842 -0.0328 -0.5403 -1.4305
  198POPC  H15A 9398   1.496   1.185   2.930 -0.7273  0.8221 -0.7178
  198POPC  H15B 9399   1.606   1.196   2.792 -0.2620 -0.4432 -1.9087
  198POPC  H15C 9400   1.432   1.249   2.783 -0.9095  2.6602  0.0542
  198POPC   C11 9401   1.825   1.376   2.839 -0.0925  0.6219  0.3644
  198POPC  H11A 9402   1.905   1.422   2.901  0.3843  2.2024 -1.3640
  198POPC  H11B 9403   1.813   1.419   2.738  2.9467  1.9390  0.4499
  198POPC     P 9404   1.866   1.121   2.937  0.4119  0.1928 -0.3616
  198POPC   O13 9405   1.983   1.041   2.902  0.0372  0.4330 -0.0533
  198POPC   O14 9406   1.749   1.041   2.972  0.8370  0.1064 -0.1360
  198POPC   O12 9407   1.838   1.228   2.822  0.8347  0.5102  0.0926
  198POPC   O11 9408   1.895   1.214   3.058 -0.2527  0.2012  0.1525
  198POPC    C1 9409   1.893   1.158   3.188  0.5054  0.0011 -0.0898
  198POPC    HA 9410   1.985   1.179   3.247 -0.1069  0.4200  0.7311
  198POPC    HB 9411   1.899   1.047   3.193 -1.6497 -0.2637 -1.9606
  198POPC    C2 9412   1.772   1.202   3.271  0.5169  0.2668 -0.2839
  198POPC    HS 9413   1.680   1.188   3.210 -0.3808  1.4961  0.7311
  198POPC   O21 9414   1.797   1.334   3.328  0.2060  0.4149 -0.0033
  198POPC   C21 9415   1.713   1.433   3.284 -0.3556 -0.0893 -0.1724
  198POPC   O22 9416   1.616   1.413   3.214 -0.0495  0.4904  0.0438
  198POPC   C22 9417   1.753   1.561   3.355  0.0800  0.2344 -0.0591
  198POPC   H2R 9418   1.686   1.570   3.444 -2.8179 -1.5875 -1.8904
  198POPC   H2S 9419   1.741   1.650   3.290  0.8305  1.6731  1.6822
  198POPC    C3 9420   1.754   1.102   3.392 -0.0388 -0.3683  0.0499
  198POPC    HX 9421   1.837   1.110   3.465 -1.7615 -1.7995  2.3157
  198POPC    HY 9422   1.765   0.998   3.355  1.1876 -0.4995  0.7205
  198POPC   O31 9423   1.635   1.128   3.469 -0.4825  0.9572 -0.6103
  198POPC   C31 9424   1.531   1.061   3.432 -0.2279  0.1899 -0.5995
  198POPC   O32 9425   1.535   0.953   3.379 -0.5649  0.4402  0.1885
  198POPC   C32 9426   1.404   1.117   3.505 -0.2809 -0.3560  0.4900
  198POPC   H2X 9427   1.432   1.220   3.536  1.5197  0.0188 -2.0710
  198POPC   H2Y 9428   1.406   1.049   3.593  0.2819 -0.9349  0.0406
  198POPC   C23 9429   1.892   1.562   3.410  0.1116  0.0738 -0.2865
  198POPC   H3R 9430   1.964   1.542   3.327 -1.1214  0.1885 -1.4168
  198POPC   H3S 9431   1.895   1.476   3.480 -0.0199  0.7135  0.5137
  198POPC   C24 9432   1.932   1.688   3.487  0.4568 -0.0758 -0.1391
  198POPC   H4R 9433   1.915   1.777   3.423 -1.0720 -0.9933 -1.1051
  198POPC   H4S 9434   2.042   1.684   3.494  0.5760 -0.1715 -1.7561
  198POPC   C25 9435   1.863   1.691   3.625  0.1439 -0.5724  0.0054
  198POPC   H5R 9436   1.901   1.601   3.679  2.2764 -0.0477 -0.5170
  198POPC   H5S 9437   1.753   1.685   3.609  0.3647 -1.0120 -1.4896
  198POPC   C26 9438   1.894   1.817   3.704  0.1623 -0.1760  0.6033
  198POPC   H6R 9439   1.848   1.907   3.658 -1.5811 -0.7251  1.2005
  198POPC   H6S 9440   2.003   1.836   3.707 -0.2334  2.1668  3.0586
  198POPC   C27 9441   1.842   1.811   3.843 -0.0110  0.0475 -0.3084
  198POPC   H7R 9442   1.883   1.720   3.893 -0.4266  0.4767  0.8459
  198POPC   H7S 9443   1.734   1.784   3.834 -0.2900  0.4819  1.4354
  198POPC   C28 9444   1.848   1.936   3.935  1.1075  1.1232  0.2089
  198POPC   H8R 9445   1.781   1.918   4.021  0.1574  1.6276 -0.3988
  198POPC   H8S 9446   1.793   2.022   3.891  0.6974  1.5020  1.4358
  198POPC   C29 9447   1.992   1.969   3.959  0.5013 -0.0936  0.6908
  198POPC   H91 9448   2.061   1.884   3.949  1.7849  1.1729 -3.9818
  198POPC  C210 9449   2.046   2.089   3.969  0.5221 -0.8125  1.1721
  198POPC  H101 9450   2.150   2.098   4.004  0.3228  2.3928  1.2284
  198POPC  C211 9451   1.984   2.225   3.938 -0.4262  0.3551 -0.2985
  198POPC  H11R 9452   1.878   2.223   3.904 -0.8165  0.0747  0.8914
  198POPC  H11S 9453   2.037   2.269   3.851  1.3436  0.4248  0.7808
  198POPC  C212 9454   1.990   2.323   4.062 -0.7309 -0.0469  0.1049
  198POPC  H12R 9455   1.957   2.422   4.025 -3.0491 -0.5393  0.7531
  198POPC  H12S 9456   2.089   2.340   4.111 -1.0763  1.6978  0.2629
  198POPC  C213 9457   1.891   2.273   4.171  0.6326 -0.5648  0.2715
  198POPC  H13R 9458   1.902   2.166   4.196  0.1766 -0.6118  0.2825
  198POPC  H13S 9459   1.790   2.286   4.127  0.9651  3.2566  0.2401
  198POPC  C214 9460   1.897   2.342   4.311 -0.7434  0.0796  0.2766
  198POPC  H14R 9461   1.805   2.307   4.363 -0.5693  0.2826  0.7325
  198POPC  H14S 9462   1.884   2.452   4.305  0.6411  0.3395  1.4249
  198POPC  C215 9463   2.029   2.307   4.392  0.1931  0.6290 -0.2896
  198POPC  H15R 9464   2.113   2.348   4.332  0.3004  0.3442 -0.3378
  198POPC  H15S 9465   2.027   2.199   4.420  2.4742  1.1472  2.3813
  198POPC  C216 9466   2.035   2.380   4.527 -0.1226 -0.0959  0.0382
  198POPC  H16R 9467   2.013   2.488   4.516 -1.9672 -0.4347  0.1479
  198POPC  H16S 9468   2.143   2.372   4.554 -0.0126 -0.7395 -0.5503
  198POPC  C217 9469   1.956   2.318   4.643 -0.1757  0.2545  0.3992
  198POPC  H17R 9470   1.984   2.211   4.657  3.5890  1.1665  1.1641
  198POPC  H17S 9471   1.849   2.333   4.619  0.4103  1.9542 -1.5152
  198POPC  C218 9472   1.980   2.389   4.773  0.4575  0.0232 -0.1439
  198POPC  H18R 9473   1.970   2.499   4.761  0.1959  0.0138 -0.0182
  198POPC  H18S 9474   2.082   2.369   4.813  1.1960  1.5410 -1.1817
  198POPC  H18T 9475   1.925   2.347   4.860 -1.6231 -0.0248 -1.4345
  198POPC   C33 9476   1.281   1.107   3.417 -0.1632  0.9008 -0.2166
  198POPC   H3X 9477   1.309   1.131   3.312 -0.0336 -3.2879 -1.3311
  198POPC   H3Y 9478   1.206   1.184   3.445 -2.0513 -0.2702 -1.7757
  198POPC   C34 9479   1.206   0.972   3.425 -0.2874 -0.0257  0.4148
  198POPC   H4X 9480   1.284   0.893   3.427 -1.9920 -1.7722  2.9003
  198POPC   H4Y 9481   1.144   0.963   3.333 -2.3200 -0.7643  1.8056
  198POPC   C35 9482   1.113   0.974   3.547 -0.3047  0.0575 -0.3910
  198POPC   H5X 9483   1.037   1.055   3.543  0.6978  0.9923 -0.8255
  198POPC   H5Y 9484   1.171   1.004   3.637  0.3127 -0.2416 -0.6828
  198POPC   C36 9485   1.043   0.842   3.577  0.3411 -0.3133  0.7234
  198POPC   H6X 9486   1.021   0.784   3.485  1.0069  0.8933 -0.2278
  198POPC   H6Y 9487   0.938   0.852   3.613 -0.0226 -1.4814  0.0313
  198POPC   C37 9488   1.101   0.738   3.670 -0.5813  0.0056 -0.2355
  198POPC   H7X 9489   1.127   0.792   3.763 -0.4689  0.5760 -0.5915
  198POPC   H7Y 9490   1.199   0.699   3.635 -1.2914 -1.4211 -0.7027
  198POPC   C38 9491   1.005   0.623   3.704 -0.0618  0.4029  0.4536
  198POPC   H8X 9492   0.985   0.556   3.618 -0.0020  0.1448  0.6398
  198POPC   H8Y 9493   0.907   0.666   3.733  1.6519  3.4041  2.3448
  198POPC   C39 9494   1.069   0.535   3.809 -0.2255 -0.1851  0.1581
  198POPC   H9X 9495   1.098   0.586   3.904 -1.2819  0.5620  0.0962
  198POPC   H9Y 9496   1.162   0.488   3.772  0.4420  2.0003 -1.1363
  198POPC  C310 9497   0.964   0.431   3.847  0.2670 -0.5506 -0.1455
  198POPC  H10X 9498   0.972   0.349   3.773 -0.6023  0.0266 -0.8954
  198POPC  H10Y 9499   0.860   0.470   3.851  0.4123 -0.2239  1.3391
  198POPC  C311 9500   0.977   0.373   3.986 -0.9630 -0.9745  0.1486
  198POPC  H11X 9501   0.899   0.299   4.014 -1.9812  0.7664  2.1893
  198POPC  H11Y 9502   0.979   0.467   4.045  2.0143  0.2388 -1.6240
  198POPC  C312 9503   1.109   0.299   4.020 -0.6647 -0.1805  0.1978
  198POPC  H12X 9504   1.196   0.365   3.997 -0.0066 -0.8646  0.6588
  198POPC  H12Y 9505   1.126   0.231   3.934  1.1452  2.3092 -1.5692
  198POPC  C313 9506   1.120   0.238   4.155 -0.0854 -0.1981 -0.2618
  198POPC  H13X 9507   1.210   0.174   4.165 -0.0064  0.2252  2.8177
  198POPC  H13Y 9508   1.033   0.171   4.172 -0.8585  0.3429 -1.8902
  198POPC  C314 9509   1.146   0.338   4.262  0.4933  0.0854 -0.2215
  198POPC  H14X 9510   1.053   0.397   4.280  1.1038  0.9209  0.2304
  198POPC  H14Y 9511   1.218   0.418   4.237  0.4331  1.7094  3.9976
  198POPC  C315 9512   1.177   0.263   4.387 -0.1192  0.3917 -1.2282
  198POPC  H15X 9513   1.186   0.336   4.470 -0.3287  0.4368 -1.2420
  198POPC  H15Y 9514   1.273   0.207   4.384 -0.7662 -0.7732 -0.8892
  198POPC  C316 9515   1.069   0.173   4.444  0.1797  0.2187  0.3217
  198POPC  H16X 9516   1.053   0.093   4.370 -1.0857  0.6053  0.1535
  198POPC  H16Y 9517   0.976   0.233   4.456 -1.4064 -1.7223 -1.6258
  198POPC  H16Z 9518   1.100   0.121   4.537 -0.1656 -1.7786 -0.6298
  199POPC     N 9519   2.323   4.575   2.861 -0.1388 -0.6193  0.0993
  199POPC   C12 9520   2.375   4.717   2.863 -0.6269  0.0433  0.8816
  199POPC  H12A 9521   2.294   4.784   2.888  0.2068  0.6484  2.0575
  199POPC  H12B 9522   2.410   4.741   2.763  0.7235 -1.8974  0.8408
  199POPC   C13 9523   2.190   4.580   2.793 -0.4552 -0.5726 -0.3692
  199POPC  H13A 9524   2.129   4.663   2.825  2.1654  1.7437 -0.9873
  199POPC  H13B 9525   2.214   4.603   2.690 -0.5539 -1.2402 -0.5471
  199POPC  H13C 9526   2.135   4.487   2.788  0.3419 -1.0670 -0.0928
  199POPC   C14 9527   2.416   4.484   2.781  0.4417 -0.2027 -0.0716
  199POPC  H14A 9528   2.429   4.517   2.679  0.0995 -1.1588 -0.4372
  199POPC  H14B 9529   2.515   4.488   2.824  0.2057  1.0425  0.3845
  199POPC  H14C 9530   2.386   4.380   2.793  0.7988 -0.2834  0.1304
  199POPC   C15 9531   2.305   4.520   3.002  0.9246  0.6512 -0.2914
  199POPC  H15A 9532   2.401   4.497   3.046 -0.0149 -0.2200  1.4074
  199POPC  H15B 9533   2.250   4.428   3.001 -1.4905  1.8399  3.1800
  199POPC  H15C 9534   2.254   4.589   3.068  1.8088  1.0048  0.0401
  199POPC   C11 9535   2.488   4.750   2.960 -0.7405 -0.1435  0.4232
  199POPC  H11A 9536   2.454   4.745   3.065  0.8114 -0.8143  0.9128
  199POPC  H11B 9537   2.526   4.853   2.950  2.9739 -1.3883  0.1889
  199POPC     P 9538   2.726   4.667   2.858 -0.2313 -0.2550  0.5558
  199POPC   O13 9539   2.820   4.767   2.912  0.6705  0.5105 -0.0777
  199POPC   O14 9540   2.684   4.680   2.719 -0.2320  0.6076 -0.1197
  199POPC   O12 9541   2.598   4.659   2.951 -0.1096 -0.1685 -0.1878
  199POPC   O11 9542   2.789   4.525   2.880 -0.3901  0.1757  1.0818
  199POPC    C1 9543   2.719   4.409   2.934 -0.3357 -0.8506 -0.7362
  199POPC    HA 9544   2.747   4.318   2.876  0.3319 -0.5871 -0.8307
  199POPC    HB 9545   2.610   4.427   2.935 -0.3332 -0.3599  2.5423
  199POPC    C2 9546   2.764   4.396   3.082  0.2424 -0.7770  0.6971
  199POPC    HS 9547   2.733   4.295   3.117 -1.1245 -0.2171  1.1530
  199POPC   O21 9548   2.718   4.505   3.156 -0.6320  0.3269 -0.9126
  199POPC   C21 9549   2.596   4.495   3.201  0.1759  0.0207  0.2883
  199POPC   O22 9550   2.527   4.395   3.176  0.2508 -0.1409  0.2596
  199POPC   C22 9551   2.567   4.608   3.294 -0.0626 -1.1068 -0.0479
  199POPC   H2R 9552   2.592   4.697   3.233 -0.8078 -2.7875 -3.0067
  199POPC   H2S 9553   2.639   4.603   3.379  0.7697  1.3868 -0.5189
  199POPC    C3 9554   2.924   4.400   3.087  0.6177  0.0330  0.6416
  199POPC    HX 9555   2.958   4.500   3.052 -1.4129  0.5542 -0.0113
  199POPC    HY 9556   2.955   4.319   3.018 -1.4899  0.5777 -1.0650
  199POPC   O31 9557   2.967   4.366   3.218  0.0334  0.2708 -0.4107
  199POPC   C31 9558   3.093   4.363   3.244 -0.0732  0.4568 -0.7474
  199POPC   O32 9559   3.182   4.361   3.161 -0.6807  0.1382 -0.0444
  199POPC   C32 9560   3.115   4.352   3.397  0.4122  0.2982  0.9527
  199POPC   H2X 9561   3.017   4.318   3.437  0.2663 -1.2938 -0.6308
  199POPC   H2Y 9562   3.141   4.452   3.437 -1.6182  1.5733 -0.7402
  199POPC   C23 9563   2.420   4.621   3.345 -0.3978  0.3796  0.2438
  199POPC   H3R 9564   2.347   4.609   3.262  0.2015  0.7165 -0.3366
  199POPC   H3S 9565   2.411   4.728   3.371 -0.2218  1.4281 -3.4979
  199POPC   C24 9566   2.373   4.533   3.467 -0.0692 -0.2389  0.4072
  199POPC   H4R 9567   2.454   4.524   3.542  1.2321 -0.7747 -1.0253
  199POPC   H4S 9568   2.365   4.426   3.438  0.9479  0.1423 -1.3907
  199POPC   C25 9569   2.241   4.577   3.537  0.3992 -0.2987  0.2639
  199POPC   H5R 9570   2.222   4.503   3.618 -1.8906  2.4147  2.4366
  199POPC   H5S 9571   2.157   4.576   3.464 -0.2793 -0.1006  1.0282
  199POPC   C26 9572   2.252   4.720   3.600 -0.1054  0.2301 -0.3780
  199POPC   H6R 9573   2.157   4.752   3.648  0.5493  0.4806  0.7774
  199POPC   H6S 9574   2.277   4.781   3.511  0.1815  2.1074  0.9440
  199POPC   C27 9575   2.370   4.733   3.705 -0.0188  0.2118 -0.9210
  199POPC   H7R 9576   2.464   4.722   3.649  0.3541  2.0840 -0.7291
  199POPC   H7S 9577   2.373   4.645   3.774  2.8176 -0.4832 -1.8067
  199POPC   C28 9578   2.380   4.863   3.777 -0.1486 -0.2579 -0.4506
  199POPC   H8R 9579   2.382   4.939   3.697 -4.8203 -0.6563 -1.2270
  199POPC   H8S 9580   2.477   4.874   3.829 -0.8385  2.4740  0.4052
  199POPC   C29 9581   2.253   4.898   3.864 -0.2334 -0.1282  0.1882
  199POPC   H91 9582   2.169   4.934   3.802  0.4575 -0.9902 -1.3160
  199POPC  C210 9583   2.244   4.865   3.997  0.0104 -0.1881 -0.1278
  199POPC  H101 9584   2.148   4.895   4.042 -0.8013 -0.4282 -1.6470
  199POPC  C211 9585   2.345   4.814   4.104 -0.5429  0.2516  0.4866
  199POPC  H11R 9586   2.349   4.874   4.197  0.9886  0.1042  0.5344
  199POPC  H11S 9587   2.446   4.816   4.059 -0.4874  1.9667  0.6347
  199POPC  C212 9588   2.301   4.680   4.153  0.4915  0.2375 -0.5086
  199POPC  H12R 9589   2.289   4.609   4.068  1.1117 -0.7426  0.2084
  199POPC  H12S 9590   2.206   4.692   4.210  1.1915 -0.5142  0.8627
  199POPC  C213 9591   2.406   4.614   4.235 -0.6996 -0.3390  0.3725
  199POPC  H13R 9592   2.379   4.513   4.272  2.1950 -1.0347  0.7941
  199POPC  H13S 9593   2.426   4.679   4.323  2.1039 -1.0526  0.3520
  199POPC  C214 9594   2.532   4.576   4.148 -0.0945 -0.3073  0.1525
  199POPC  H14R 9595   2.615   4.533   4.209  2.6511  1.2257 -2.2600
  199POPC  H14S 9596   2.571   4.678   4.127 -1.7380  0.5635  1.1512
  199POPC  C215 9597   2.523   4.476   4.030  0.6877  0.7050  0.6066
  199POPC  H15R 9598   2.624   4.451   3.992 -0.1520 -0.2406 -1.0757
  199POPC  H15S 9599   2.474   4.536   3.951  0.9625 -0.8205 -0.7620
  199POPC  C216 9600   2.438   4.350   4.051 -0.2897  0.8172  0.3567
  199POPC  H16R 9601   2.338   4.368   4.095 -1.1279 -0.9839 -0.6947
  199POPC  H16S 9602   2.488   4.285   4.126 -0.8969 -1.1785 -0.8979
  199POPC  C217 9603   2.434   4.267   3.919  0.2490  0.1364 -0.2357
  199POPC  H17R 9604   2.387   4.169   3.943  0.2216  0.3517  0.6452
  199POPC  H17S 9605   2.538   4.243   3.888 -0.0441  3.0351 -4.2054
  199POPC  C218 9606   2.365   4.327   3.796  0.8265 -0.1997  0.4874
  199POPC  H18R 9607   2.368   4.265   3.703  2.2543  2.4666 -1.3934
  199POPC  H18S 9608   2.432   4.412   3.769  1.8389 -0.9979  0.4033
  199POPC  H18T 9609   2.269   4.369   3.831  1.2219 -0.4523  1.9122
  199POPC   C33 9610   3.221   4.246   3.430  0.4286 -0.3869  0.5397
  199POPC   H3X 9611   3.311   4.273   3.371  1.5940 -0.2219  2.3421
  199POPC   H3Y 9612   3.183   4.146   3.401 -0.1096  0.8070 -3.5139
  199POPC   C34 9613   3.248   4.252   3.580  0.3781 -0.4154 -0.3353
  199POPC   H4X 9614   3.156   4.242   3.642  0.6273 -0.7406 -0.0118
  199POPC   H4Y 9615   3.279   4.359   3.586  2.7842 -1.1101  0.7122
  199POPC   C35 9616   3.362   4.160   3.625  0.3635  0.1908  0.3877
  199POPC   H5X 9617   3.445   4.162   3.551  1.8702 -0.3974  2.0050
  199POPC   H5Y 9618   3.316   4.059   3.628  1.4580 -0.3021  1.3660
  199POPC   C36 9619   3.421   4.194   3.762  0.0007  1.0603  0.6461
  199POPC   H6X 9620   3.492   4.116   3.799 -1.8312  0.4421  3.1845
  199POPC   H6Y 9621   3.343   4.180   3.840  0.2477  1.6682  1.0125
  199POPC   C37 9622   3.488   4.326   3.781 -0.0405  0.1327 -0.3454
  199POPC   H7X 9623   3.433   4.414   3.741 -2.4377 -1.0478  0.2089
  199POPC   H7Y 9624   3.585   4.320   3.727  0.4414  1.0574  0.3752
  199POPC   C38 9625   3.539   4.359   3.921  0.0401  0.2438 -0.3397
  199POPC   H8X 9626   3.585   4.264   3.959 -1.0244 -0.0304  0.3167
  199POPC   H8Y 9627   3.455   4.370   3.993 -0.0550 -0.1105 -0.3918
  199POPC   C39 9628   3.650   4.468   3.934 -0.7451  1.1772 -0.2103
  199POPC   H9X 9629   3.632   4.542   3.853  0.7254  4.5971  2.3468
  199POPC   H9Y 9630   3.747   4.415   3.920 -1.2180  0.3384 -0.3803
  199POPC  C310 9631   3.657   4.553   4.064  1.1817 -0.2396  0.3276
  199POPC  H10X 9632   3.562   4.609   4.073  0.2044 -1.9898  1.3268
  199POPC  H10Y 9633   3.748   4.617   4.063  2.3839 -1.8767  0.8435
  199POPC  C311 9634   3.656   4.470   4.186 -0.3018  0.6629  0.3311
  199POPC  H11X 9635   3.755   4.420   4.192 -0.4087  0.5768  1.8333
  199POPC  H11Y 9636   3.575   4.393   4.189  1.6694 -1.5361  0.4425
  199POPC  C312 9637   3.650   4.551   4.317 -0.2268  0.3062  0.9530
  199POPC  H12X 9638   3.730   4.628   4.320 -0.4068  0.6581 -1.4093
  199POPC  H12Y 9639   3.658   4.474   4.397 -1.1376 -0.2524  0.5174
  199POPC  C313 9640   3.504   4.616   4.332 -0.0143 -0.0563 -0.3299
  199POPC  H13X 9641   3.428   4.540   4.302 -1.3162  0.3978  1.5861
  199POPC  H13Y 9642   3.506   4.702   4.262 -0.0866  0.1508 -0.0813
  199POPC  C314 9643   3.467   4.665   4.469  0.1814  0.6459  0.1484
  199POPC  H14X 9644   3.456   4.583   4.544 -0.7880 -0.4752 -1.1726
  199POPC  H14Y 9645   3.368   4.715   4.468 -0.2531 -0.2062 -1.1675
  199POPC  C315 9646   3.557   4.772   4.528 -0.1218 -0.1309  0.4379
  199POPC  H15X 9647   3.626   4.808   4.449  1.0723 -0.5342  1.2683
  199POPC  H15Y 9648   3.621   4.735   4.612  0.9084  2.7283  1.0222
  199POPC  C316 9649   3.484   4.898   4.579 -0.0074 -0.9686 -0.3548
  199POPC  H16X 9650   3.558   4.978   4.601 -2.4797  1.1316  0.9006
  199POPC  H16Y 9651   3.433   4.883   4.676  0.7194 -1.4644 -0.0377
  199POPC  H16Z 9652   3.413   4.943   4.507 -0.9238 -0.3050  0.9166
  200POPC     N 9653   2.970   3.947   2.255 -0.1394  0.3432  0.2218
  200POPC   C12 9654   2.998   3.949   2.404 -0.4370 -0.5986  0.3193
  200POPC  H12A 9655   2.905   3.972   2.454  0.0509  1.2217  0.4482
  200POPC  H12B 9656   3.049   4.040   2.431  0.5171 -1.0580  0.1173
  200POPC   C13 9657   2.932   4.082   2.202 -0.3009 -0.4838 -0.2669
  200POPC  H13A 9658   2.948   4.081   2.095  2.2817 -1.0179  0.0711
  200POPC  H13B 9659   2.827   4.099   2.224 -0.1577 -0.5830  0.5437
  200POPC  H13C 9660   2.993   4.162   2.241  1.6920 -0.8281 -2.4712
  200POPC   C14 9661   3.087   3.894   2.181 -0.0663 -0.1267  0.0621
  200POPC  H14A 9662   3.101   3.798   2.229  0.8849 -1.2605 -2.3119
  200POPC  H14B 9663   3.082   3.881   2.074  2.6497 -0.9564 -0.0420
  200POPC  H14C 9664   3.178   3.950   2.198 -1.7807  2.3882  1.5796
  200POPC   C15 9665   2.858   3.854   2.231 -0.0587 -0.0392  0.5613
  200POPC  H15A 9666   2.759   3.880   2.265 -0.7985  1.3196 -2.3128
  200POPC  H15B 9667   2.880   3.752   2.259  1.0401  0.4436  1.5407
  200POPC  H15C 9668   2.844   3.836   2.125 -0.7399  0.1003  0.6218
  200POPC   C11 9669   3.063   3.830   2.485 -0.2871 -0.2582 -0.3898
  200POPC  H11A 9670   3.042   3.858   2.591 -1.6113 -0.2355 -0.6438
  200POPC  H11B 9671   3.172   3.834   2.469 -0.1144  0.1425  0.7797
  200POPC     P 9672   3.090   3.579   2.419 -0.1068  0.4181  0.0797
  200POPC   O13 9673   3.185   3.606   2.313 -0.2599 -0.1241  0.6439
  200POPC   O14 9674   2.995   3.462   2.395  0.1829 -0.3906 -0.2710
  200POPC   O12 9675   3.007   3.707   2.450  0.4419  0.3137  0.4315
  200POPC   O11 9676   3.168   3.556   2.557 -0.0634  0.3292 -0.1538
  200POPC    C1 9677   3.098   3.503   2.673 -0.3258 -0.5425 -0.4762
  200POPC    HA 9678   3.167   3.439   2.733  0.8200  1.8489  0.9144
  200POPC    HB 9679   3.012   3.437   2.649 -0.6819 -1.0059  1.8431
  200POPC    C2 9680   3.046   3.609   2.775  0.2597  0.0705  0.0163
  200POPC    HS 9681   2.970   3.670   2.722 -0.7930 -1.0328  0.2164
  200POPC   O21 9682   3.148   3.685   2.839 -0.5606  0.6389  0.4016
  200POPC   C21 9683   3.119   3.811   2.865  0.1281  0.3864  0.1646
  200POPC   O22 9684   3.019   3.876   2.825 -0.1030  0.1982  0.3559
  200POPC   C22 9685   3.227   3.881   2.953 -0.3330  0.9733  0.2756
  200POPC   H2R 9686   3.203   3.989   2.962 -1.9453  0.5715  1.1629
  200POPC   H2S 9687   3.327   3.861   2.909 -0.3283  0.1806  0.6173
  200POPC    C3 9688   2.952   3.547   2.885 -0.2439 -0.4991  0.5726
  200POPC    HX 9689   2.867   3.495   2.836  1.3606 -0.7787 -2.1806
  200POPC    HY 9690   2.905   3.631   2.941  0.0354  0.7889 -1.0240
  200POPC   O31 9691   3.019   3.458   2.970 -1.0949 -0.0103  0.3111
  200POPC   C31 9692   2.951   3.430   3.074 -0.0342 -0.1850 -0.4218
  200POPC   O32 9693   2.837   3.460   3.104 -0.0064  0.2252 -0.7050
  200POPC   C32 9694   3.038   3.359   3.173 -0.9513 -0.3981  0.2655
  200POPC   H2X 9695   3.111   3.433   3.212  0.1305 -2.0576  1.4988
  200POPC   H2Y 9696   3.095   3.275   3.129  2.6830  2.8801 -1.9034
  200POPC   C23 9697   3.220   3.832   3.104  0.0375 -0.1691  1.4313
  200POPC   H3R 9698   3.317   3.861   3.149  0.0105  2.5025  0.0018
  200POPC   H3S 9699   3.201   3.723   3.104 -1.3586 -0.1560 -3.1307
  200POPC   C24 9700   3.113   3.911   3.181 -0.4785 -0.0132 -0.1008
  200POPC   H4R 9701   3.027   3.931   3.114  0.5654 -0.3272 -1.5817
  200POPC   H4S 9702   3.152   4.009   3.215  0.9002  0.0124 -1.6017
  200POPC   C25 9703   3.065   3.820   3.300 -0.0478 -0.1481 -0.2898
  200POPC   H5R 9704   3.153   3.809   3.367 -0.9923 -1.3586  0.8235
  200POPC   H5S 9705   3.034   3.715   3.279  1.2577 -1.0003  1.6327
  200POPC   C26 9706   2.953   3.900   3.383 -0.3898  0.2554  0.2701
  200POPC   H6R 9707   2.884   3.922   3.299  3.3674  1.7520 -2.7709
  200POPC   H6S 9708   2.995   3.999   3.414  3.7810 -0.6046 -1.8389
  200POPC   C27 9709   2.881   3.825   3.494  0.1797  0.3136  0.4548
  200POPC   H7R 9710   2.870   3.718   3.468  1.8729  0.4213 -0.8610
  200POPC   H7S 9711   2.773   3.853   3.488 -0.2139 -1.4198 -3.1815
  200POPC   C28 9712   2.952   3.853   3.631  0.0763  0.3400  0.2173
  200POPC   H8R 9713   2.982   3.959   3.644  0.3431  0.3106 -0.1386
  200POPC   H8S 9714   3.048   3.801   3.610 -0.1799  0.0054 -0.1408
  200POPC   C29 9715   2.873   3.796   3.750 -0.3355 -1.1840  0.3404
  200POPC   H91 9716   2.823   3.699   3.739 -1.2824 -0.5689 -0.9095
  200POPC  C210 9717   2.870   3.851   3.878 -0.5547  0.6249  0.5502
  200POPC  H101 9718   2.834   3.797   3.966 -2.7248  1.6924  0.3724
  200POPC  C211 9719   2.941   3.974   3.926 -0.8326  0.0682 -0.1057
  200POPC  H11R 9720   2.870   4.050   3.964 -1.4188  0.0818 -1.1756
  200POPC  H11S 9721   3.010   4.027   3.856  1.2154 -1.5060  0.6264
  200POPC  C212 9722   3.033   3.959   4.047  0.4507 -0.8961 -0.3464
  200POPC  H12R 9723   3.092   4.053   4.055  2.0789 -1.4616 -3.8209
  200POPC  H12S 9724   3.114   3.887   4.021  1.9198  1.2032 -1.8789
  200POPC  C213 9725   2.952   3.934   4.175 -0.5234 -0.0672  0.6995
  200POPC  H13R 9726   2.874   3.859   4.150 -1.2903  0.8848  0.1618
  200POPC  H13S 9727   2.893   4.023   4.205 -1.5577 -1.4624  3.0811
  200POPC  C214 9728   3.049   3.896   4.292 -0.4999 -0.0348 -0.3531
  200POPC  H14R 9729   3.118   3.980   4.310  0.4673 -1.1765  1.5948
  200POPC  H14S 9730   3.117   3.814   4.260  1.6596  0.8501  1.6877
  200POPC  C215 9731   2.980   3.857   4.424 -0.2465 -0.6819  0.7911
  200POPC  H15R 9732   2.930   3.759   4.413 -0.2372 -0.5411 -0.8329
  200POPC  H15S 9733   2.902   3.931   4.453 -1.9887 -0.1035 -4.3427
  200POPC  C216 9734   3.075   3.846   4.546  0.0219 -0.1652  0.5282
  200POPC  H16R 9735   3.167   3.800   4.503 -0.5641  0.7323 -1.8203
  200POPC  H16S 9736   3.034   3.773   4.620 -0.2898 -1.6371 -1.0190
  200POPC  C217 9737   3.095   3.982   4.614 -0.6956 -0.9079  0.2552
  200POPC  H17R 9738   3.001   4.025   4.653  0.4170  0.9690  1.0606
  200POPC  H17S 9739   3.146   4.058   4.551  0.0219  1.5125  3.4892
  200POPC  C218 9740   3.194   3.971   4.732  0.0527  0.0479 -0.6815
  200POPC  H18R 9741   3.211   4.060   4.797  0.6034 -0.1306 -0.5717
  200POPC  H18S 9742   3.293   3.953   4.685  0.8927  2.7888 -0.1116
  200POPC  H18T 9743   3.162   3.898   4.809  0.0808  0.1302 -0.5913
  200POPC   C33 9744   2.953   3.318   3.305 -0.4156  0.3320 -0.0627
  200POPC   H3X 9745   2.883   3.236   3.280 -1.0129  0.9133 -0.3378
  200POPC   H3Y 9746   2.894   3.404   3.344  0.8127  1.2548 -0.1822
  200POPC   C34 9747   3.037   3.273   3.416  0.2230 -0.2367 -0.2499
  200POPC   H4X 9748   3.124   3.334   3.449  0.8784 -0.4597 -1.5149
  200POPC   H4Y 9749   3.088   3.183   3.376 -0.2004  0.0023 -1.3592
  200POPC   C35 9750   2.949   3.232   3.534  0.2154  0.0553  0.2503
  200POPC   H5X 9751   3.000   3.152   3.591 -1.1881 -1.0169  0.0781
  200POPC   H5Y 9752   2.848   3.194   3.505  0.2298  0.6307 -0.5505
  200POPC   C36 9753   2.927   3.350   3.626  0.0002  0.4097 -0.3564
  200POPC   H6X 9754   2.871   3.423   3.564 -1.9750 -0.2184  0.6125
  200POPC   H6Y 9755   3.026   3.393   3.650  2.0154 -2.7827 -2.1591
  200POPC   C37 9756   2.848   3.320   3.756 -0.4960 -0.2138 -0.0806
  200POPC   H7X 9757   2.917   3.254   3.813 -1.4384 -2.3020 -1.2400
  200POPC   H7Y 9758   2.765   3.252   3.726  0.1379 -2.1258  2.1767
  200POPC   C38 9759   2.798   3.442   3.841  1.7007 -0.4206  0.5401
  200POPC   H8X 9760   2.725   3.506   3.787  1.3558 -1.1258  0.1559
  200POPC   H8Y 9761   2.887   3.500   3.872  2.1122 -0.5384 -0.3861
  200POPC   C39 9762   2.720   3.387   3.967 -0.3969  0.2889  0.0865
  200POPC   H9X 9763   2.623   3.352   3.927  0.1665 -1.1171 -0.0925
  200POPC   H9Y 9764   2.690   3.470   4.035 -0.1109  0.4474  0.0252
  200POPC  C310 9765   2.799   3.282   4.056 -0.7900  0.6712 -0.1871
  200POPC  H10X 9766   2.822   3.194   3.993 -0.9732  1.7419 -1.8125
  200POPC  H10Y 9767   2.721   3.256   4.131  0.4582 -0.6210  0.7165
  200POPC  C311 9768   2.927   3.325   4.130 -0.8391 -0.0974 -0.0392
  200POPC  H11X 9769   2.909   3.423   4.180  2.9380  1.0980 -0.6359
  200POPC  H11Y 9770   3.012   3.351   4.063 -0.5058 -0.3942  0.2609
  200POPC  C312 9771   2.967   3.228   4.242 -0.0535 -0.8319  0.0781
  200POPC  H12X 9772   3.018   3.142   4.194 -1.5010 -0.3293 -2.5466
  200POPC  H12Y 9773   2.875   3.198   4.297  0.4564 -0.2949  1.2548
  200POPC  C313 9774   3.066   3.291   4.338  0.1150 -0.3930 -0.7290
  200POPC  H13X 9775   3.009   3.364   4.400 -0.3188 -0.5342 -0.9560
  200POPC  H13Y 9776   3.150   3.333   4.279 -0.0721 -1.1793 -1.5726
  200POPC  C314 9777   3.137   3.192   4.437  0.0148 -0.4333 -0.4308
  200POPC  H14X 9778   3.069   3.111   4.469  0.0678 -0.7421 -1.0797
  200POPC  H14Y 9779   3.162   3.264   4.518 -0.3608  0.3269 -0.9751
  200POPC  C315 9780   3.271   3.134   4.388  1.0581  0.3088 -0.1324
  200POPC  H15X 9781   3.331   3.220   4.352 -2.1934  1.6053 -2.8835
  200POPC  H15Y 9782   3.250   3.073   4.298 -1.8554 -1.7695  1.7773
  200POPC  C316 9783   3.340   3.046   4.496 -0.0866 -0.6872 -0.5364
  200POPC  H16X 9784   3.288   2.949   4.509 -0.6901 -0.3853 -0.6724
  200POPC  H16Y 9785   3.345   3.099   4.594 -0.1961 -1.8408  0.1113
  200POPC  H16Z 9786   3.444   3.024   4.462 -0.3908  0.1632 -2.0808
  201POPC     N 9787   2.268   1.357   2.854  0.2945  0.0076  0.0702
  201POPC   C12 9788   2.204   1.238   2.919 -0.1337  0.1517 -0.1919
  201POPC  H12A 9789   2.130   1.198   2.851 -0.3361  0.7221 -0.3218
  201POPC  H12B 9790   2.158   1.266   3.013  0.8188  1.3629 -0.0619
  201POPC   C13 9791   2.154   1.454   2.809  0.0152  0.1682  0.5974
  201POPC  H13A 9792   2.183   1.546   2.762 -1.0836 -0.1190 -0.7048
  201POPC  H13B 9793   2.090   1.397   2.743 -0.8470  0.0412  1.5215
  201POPC  H13C 9794   2.092   1.487   2.890 -0.0990  0.3255  0.4468
  201POPC   C14 9795   2.362   1.442   2.945 -0.1192  0.3558  0.7482
  201POPC  H14A 9796   2.400   1.521   2.882 -0.3094 -0.1462 -0.0182
  201POPC  H14B 9797   2.307   1.492   3.024 -0.0720  1.2927  0.2036
  201POPC  H14C 9798   2.443   1.381   2.981  1.6321  0.9035 -1.9806
  201POPC   C15 9799   2.349   1.315   2.737  0.7542  0.2078  0.2706
  201POPC  H15A 9800   2.400   1.399   2.691  0.9091 -0.9515 -1.8169
  201POPC  H15B 9801   2.276   1.278   2.666 -0.6304  1.9979  0.6878
  201POPC  H15C 9802   2.426   1.244   2.762 -1.1844 -1.8041  0.8110
  201POPC   C11 9803   2.290   1.116   2.957  0.2669 -0.0903  0.4913
  201POPC  H11A 9804   2.371   1.093   2.885  1.0027 -2.7696  2.0138
  201POPC  H11B 9805   2.228   1.023   2.960  1.1435 -0.7084 -0.2643
  201POPC     P 9806   2.290   1.143   3.213 -0.0957  0.1458  0.3617
  201POPC   O13 9807   2.208   1.025   3.251 -0.4045 -1.0350  0.5445
  201POPC   O14 9808   2.233   1.280   3.230  0.3517 -0.4242  0.3870
  201POPC   O12 9809   2.363   1.143   3.072  0.1764 -0.2757 -0.8417
  201POPC   O11 9810   2.420   1.146   3.305 -0.0341  0.5711  0.1853
  201POPC    C1 9811   2.505   1.260   3.306  0.3140  0.4481 -0.2318
  201POPC    HA 9812   2.453   1.358   3.313  0.1691  0.3052  0.8976
  201POPC    HB 9813   2.569   1.258   3.215  0.4671  0.2620 -0.1218
  201POPC    C2 9814   2.596   1.259   3.433 -0.2453 -0.3527  0.1652
  201POPC    HS 9815   2.635   1.158   3.455  2.4689  1.1986  3.4256
  201POPC   O21 9816   2.515   1.306   3.536  0.1506 -0.5413 -0.8068
  201POPC   C21 9817   2.558   1.279   3.666 -0.0852 -0.1782  0.7248
  201POPC   O22 9818   2.644   1.194   3.689 -0.0500  0.0341  0.3847
  201POPC   C22 9819   2.502   1.380   3.769  0.7786  0.4733  0.6139
  201POPC   H2R 9820   2.433   1.326   3.838  0.3466 -0.3253 -0.4196
  201POPC   H2S 9821   2.451   1.457   3.707 -2.9208 -2.4322 -0.3280
  201POPC    C3 9822   2.727   1.350   3.418  0.0216  0.4266  0.5483
  201POPC    HX 9823   2.695   1.454   3.438  2.0804  1.0100  0.9540
  201POPC    HY 9824   2.755   1.338   3.311 -0.5523  0.6555  0.3667
  201POPC   O31 9825   2.835   1.318   3.507  0.1499  0.0308  0.1581
  201POPC   C31 9826   2.913   1.217   3.468 -0.2798 -0.6453  0.2615
  201POPC   O32 9827   2.904   1.152   3.363 -0.5865  0.5194 -0.5311
  201POPC   C32 9828   3.035   1.211   3.566  0.1467  0.7347 -0.0599
  201POPC   H2X 9829   3.002   1.186   3.668 -1.7001  0.9665 -0.5754
  201POPC   H2Y 9830   3.078   1.313   3.572  0.4390  0.6729 -0.8629
  201POPC   C23 9831   2.625   1.442   3.848 -0.3197  0.2048  0.2192
  201POPC   H3R 9832   2.689   1.367   3.900  0.0797 -0.0189 -0.5671
  201POPC   H3S 9833   2.575   1.509   3.920 -3.1374 -1.7819  0.2614
  201POPC   C24 9834   2.716   1.532   3.757 -0.4886 -0.7975 -0.0312
  201POPC   H4R 9835   2.665   1.631   3.754  0.4042 -0.3361 -0.3421
  201POPC   H4S 9836   2.711   1.492   3.653 -2.8662  1.1376 -0.7593
  201POPC   C25 9837   2.857   1.553   3.810 -0.0571 -0.3043  0.2344
  201POPC   H5R 9838   2.923   1.617   3.747 -0.2131  1.2606  1.5831
  201POPC   H5S 9839   2.903   1.453   3.824 -2.1309 -1.4532 -0.6238
  201POPC   C26 9840   2.875   1.618   3.946  0.7611 -0.3378  0.0231
  201POPC   H6R 9841   2.836   1.547   4.022 -0.0726 -0.0293 -0.1165
  201POPC   H6S 9842   2.811   1.708   3.952  0.5519 -0.5037  0.2889
  201POPC   C27 9843   3.022   1.649   3.971  0.2279  0.3179 -0.0874
  201POPC   H7R 9844   3.075   1.696   3.885 -2.6857  0.2896 -2.0529
  201POPC   H7S 9845   3.069   1.552   3.996  0.6640  0.7042  0.6442
  201POPC   C28 9846   3.037   1.739   4.095  0.1445  1.7579  0.6715
  201POPC   H8R 9847   3.143   1.737   4.130  0.7107 -1.7364 -0.8494
  201POPC   H8S 9848   2.983   1.684   4.175 -0.1890 -1.6388 -1.6750
  201POPC   C29 9849   2.970   1.874   4.076  0.4643  0.3408 -0.5712
  201POPC   H91 9850   3.026   1.926   3.997  1.3255 -0.8974 -0.8115
  201POPC  C210 9851   2.876   1.927   4.150  0.1446 -0.5252  0.1285
  201POPC  H101 9852   2.856   2.035   4.141 -1.4052 -0.5531  2.5504
  201POPC  C211 9853   2.830   1.882   4.287  0.4587  0.5487 -0.0568
  201POPC  H11R 9854   2.877   1.790   4.326 -2.6406 -0.0490  2.7900
  201POPC  H11S 9855   2.725   1.845   4.279  0.0207  1.7235  0.0669
  201POPC  C212 9856   2.831   1.988   4.399 -0.3415 -0.8183 -0.0646
  201POPC  H12R 9857   2.783   1.944   4.490 -2.7109 -0.7598 -1.2054
  201POPC  H12S 9858   2.758   2.063   4.362  1.1232 -0.7479 -3.1270
  201POPC  C213 9859   2.969   2.055   4.420 -0.2560  0.4921  0.1983
  201POPC  H13R 9860   2.998   2.120   4.334  1.7007  1.7048  1.6759
  201POPC  H13S 9861   3.053   1.982   4.428  0.5786  1.6256  2.6178
  201POPC  C214 9862   2.991   2.137   4.551  0.6802 -1.0940 -0.2273
  201POPC  H14R 9863   2.968   2.059   4.626 -2.1125 -0.8566 -0.7322
  201POPC  H14S 9864   2.915   2.218   4.558 -0.4117 -1.9732 -1.6041
  201POPC  C215 9865   3.133   2.200   4.570 -0.6560 -0.7404  0.2560
  201POPC  H15R 9866   3.159   2.267   4.485 -2.5502 -0.3399 -0.0637
  201POPC  H15S 9867   3.203   2.114   4.562  1.3989  0.9044 -0.1533
  201POPC  C216 9868   3.153   2.274   4.708 -0.3005 -0.3449 -0.1830
  201POPC  H16R 9869   3.111   2.208   4.787  0.1243 -2.4813 -1.6620
  201POPC  H16S 9870   3.096   2.369   4.707 -0.5412 -0.3523  3.0696
  201POPC  C217 9871   3.298   2.297   4.723  0.3904  0.3226 -0.4502
  201POPC  H17R 9872   3.334   2.341   4.627  0.4796  0.0013 -0.5648
  201POPC  H17S 9873   3.346   2.198   4.739  1.9637  1.0768 -0.2709
  201POPC  C218 9874   3.333   2.376   4.843  0.4444 -0.8261 -0.6281
  201POPC  H18R 9875   3.274   2.337   4.929  0.1486 -1.9742 -1.3213
  201POPC  H18S 9876   3.287   2.477   4.835  1.9696 -0.1074 -0.6480
  201POPC  H18T 9877   3.441   2.379   4.869  0.8089  3.0510 -2.0398
  201POPC   C33 9878   3.141   1.102   3.523 -0.4544 -0.2275 -0.1794
  201POPC   H3X 9879   3.191   1.121   3.425 -1.7112  0.2487 -0.7523
  201POPC   H3Y 9880   3.086   1.007   3.506 -1.6604  0.6955 -1.6344
  201POPC   C34 9881   3.244   1.096   3.637 -0.5881 -0.4567  0.2590
  201POPC   H4X 9882   3.318   1.017   3.611  0.9510  1.3085 -0.9163
  201POPC   H4Y 9883   3.189   1.070   3.730  0.1814 -1.1039  0.5492
  201POPC   C35 9884   3.332   1.218   3.655  0.0896 -0.2753  0.2639
  201POPC   H5X 9885   3.291   1.279   3.571  1.9119  0.0058 -0.4699
  201POPC   H5Y 9886   3.440   1.202   3.631  0.5007  0.0433  1.8009
  201POPC   C36 9887   3.313   1.278   3.794 -0.3185  0.3086 -0.4314
  201POPC   H6X 9888   3.207   1.290   3.826 -0.7913 -0.3147 -1.6834
  201POPC   H6Y 9889   3.361   1.377   3.788 -0.4500  0.3962 -0.0701
  201POPC   C37 9890   3.372   1.195   3.907  0.0333 -0.0012  0.0657
  201POPC   H7X 9891   3.471   1.152   3.883  0.6434  0.3923  1.7722
  201POPC   H7Y 9892   3.314   1.100   3.915  2.0870 -1.4487 -1.3796
  201POPC   C38 9893   3.382   1.269   4.048  0.5211 -0.0565  0.7637
  201POPC   H8X 9894   3.274   1.284   4.072 -0.2027 -2.6343 -0.4814
  201POPC   H8Y 9895   3.432   1.367   4.042 -2.5250  1.7968  2.7056
  201POPC   C39 9896   3.426   1.180   4.161  0.1398  0.5875 -0.4933
  201POPC   H9X 9897   3.529   1.138   4.156 -1.1028 -3.0255  0.7549
  201POPC   H9Y 9898   3.354   1.096   4.154  0.3854  0.3375 -0.0521
  201POPC  C310 9899   3.392   1.246   4.293 -0.6612  0.2613 -0.7182
  201POPC  H10X 9900   3.300   1.307   4.285 -1.5180 -0.8190  0.4756
  201POPC  H10Y 9901   3.481   1.312   4.298 -2.3193  2.5456  0.6219
  201POPC  C311 9902   3.381   1.160   4.413 -0.3892  0.2247 -0.3632
  201POPC  H11X 9903   3.470   1.095   4.427 -1.1832 -0.6646  0.8116
  201POPC  H11Y 9904   3.301   1.083   4.402  1.3370 -1.3405 -3.0600
  201POPC  C312 9905   3.364   1.236   4.548 -0.0541 -0.6448 -0.3459
  201POPC  H12X 9906   3.271   1.298   4.543  2.3172  3.1562 -2.2056
  201POPC  H12Y 9907   3.446   1.310   4.556  2.8309 -3.7601  1.1156
  201POPC  C313 9908   3.372   1.150   4.679  0.8233 -0.3343 -0.0602
  201POPC  H13X 9909   3.369   1.219   4.766 -3.5081  0.5651 -0.6784
  201POPC  H13Y 9910   3.472   1.104   4.670  0.6866 -0.9853  1.4283
  201POPC  C314 9911   3.268   1.030   4.690 -0.1427 -0.8185  0.3215
  201POPC  H14X 9912   3.241   1.000   4.586 -1.8159 -3.9870  1.5375
  201POPC  H14Y 9913   3.168   1.058   4.729  0.4388  0.5371  0.9152
  201POPC  C315 9914   3.301   0.901   4.762  0.1977  0.6357  0.1434
  201POPC  H15X 9915   3.391   0.850   4.723  0.5483 -0.0682  1.7845
  201POPC  H15Y 9916   3.218   0.828   4.753  0.1899  0.5911  0.5490
  201POPC  C316 9917   3.323   0.924   4.912 -0.1070  0.0395 -1.0945
  201POPC  H16X 9918   3.423   0.968   4.933  0.3342 -0.9531 -1.0869
  201POPC  H16Y 9919   3.326   0.825   4.961 -0.1664 -0.6136 -2.3771
  201POPC  H16Z 9920   3.250   0.985   4.969  1.5198  0.5242  0.5438
  202POPC     N 9921   6.173   2.337   2.161  0.4567  0.2543  0.0206
  202POPC   C12 9922   6.117   2.442   2.256  0.0806 -0.3836 -0.2887
  202POPC  H12A 9923   6.038   2.501   2.213  2.5755  1.8074 -2.2219
  202POPC  H12B 9924   6.198   2.511   2.279 -0.1156  0.4582 -2.0201
  202POPC   C13 9925   6.242   2.419   2.055  0.0560  0.6535  0.0533
  202POPC  H13A 9926   6.327   2.471   2.094  0.2843 -0.6625  1.3734
  202POPC  H13B 9927   6.270   2.345   1.981 -2.0039  0.3896 -0.5527
  202POPC  H13C 9928   6.179   2.489   2.001 -0.4801  0.7846  0.8327
  202POPC   C14 9929   6.275   2.250   2.223 -0.3248 -0.3707 -0.6666
  202POPC  H14A 9930   6.346   2.309   2.277  0.3205 -1.6992 -0.0205
  202POPC  H14B 9931   6.235   2.188   2.302 -1.4930  1.0115 -0.1309
  202POPC  H14C 9932   6.327   2.195   2.145 -0.4271  1.8485 -2.3990
  202POPC   C15 9933   6.064   2.256   2.095 -0.0586  0.1098 -0.2531
  202POPC  H15A 9934   6.101   2.173   2.036 -1.6114  0.5866 -1.9932
  202POPC  H15B 9935   6.004   2.318   2.030  0.0796  0.7730  0.2374
  202POPC  H15C 9936   5.994   2.218   2.167 -2.2233  3.3484 -0.4106
  202POPC   C11 9937   6.056   2.396   2.392  0.0919 -0.2435 -0.0729
  202POPC  H11A 9938   6.047   2.482   2.462 -1.5221 -0.2001 -0.2868
  202POPC  H11B 9939   6.119   2.320   2.444 -2.6771 -2.0838  0.8183
  202POPC     P 9940   5.798   2.407   2.337  0.1853  0.1330  0.0825
  202POPC   O13 9941   5.689   2.311   2.296 -0.2571  0.0498  0.7321
  202POPC   O14 9942   5.824   2.513   2.233  0.1613  0.3023  0.1355
  202POPC   O12 9943   5.932   2.329   2.379  0.2708 -0.8017  0.0050
  202POPC   O11 9944   5.766   2.480   2.478 -0.1165  0.0064 -0.6357
  202POPC    C1 9945   5.687   2.408   2.579 -0.4104  0.1456  0.0010
  202POPC    HA 9946   5.635   2.317   2.541 -2.6407  1.9321 -1.4998
  202POPC    HB 9947   5.604   2.469   2.621  0.8070  0.3567  2.2869
  202POPC    C2 9948   5.775   2.360   2.703 -0.0940  0.2340  0.8140
  202POPC    HS 9949   5.842   2.281   2.662 -1.6152  0.3047 -2.0453
  202POPC   O21 9950   5.688   2.320   2.806 -0.2773  0.1150 -0.5321
  202POPC   C21 9951   5.726   2.217   2.880  0.1911 -0.7410  0.7197
  202POPC   O22 9952   5.837   2.162   2.876 -0.4539 -0.4160 -0.1388
  202POPC   C22 9953   5.621   2.172   2.972  0.0066  0.2884 -0.7030
  202POPC   H2R 9954   5.536   2.242   2.973 -0.5715 -0.4113  0.6146
  202POPC   H2S 9955   5.668   2.171   3.073 -0.1267  0.0052 -0.6413
  202POPC    C3 9956   5.859   2.476   2.758  0.0547 -0.8612 -0.2138
  202POPC    HX 9957   5.799   2.570   2.763  2.9089  1.0983  0.1913
  202POPC    HY 9958   5.942   2.493   2.686 -0.5608 -1.1106 -0.9864
  202POPC   O31 9959   5.913   2.460   2.888 -0.0651  0.5849 -0.0330
  202POPC   C31 9960   6.012   2.382   2.907  0.9086  0.3612 -0.1852
  202POPC   O32 9961   6.073   2.326   2.818 -0.1486 -0.5605 -0.2818
  202POPC   C32 9962   6.046   2.379   3.050  0.1378  0.0020 -0.4657
  202POPC   H2X 9963   5.964   2.328   3.105 -0.0043 -0.5427 -1.1657
  202POPC   H2Y 9964   6.050   2.483   3.087 -1.5849 -0.1035  0.1075
  202POPC   C23 9965   5.582   2.025   2.947 -0.2932  0.0755 -1.0345
  202POPC   H3R 9966   5.672   1.963   2.924 -0.4862 -0.5348 -0.2101
  202POPC   H3S 9967   5.522   2.022   2.853 -1.6087  2.3943 -0.3298
  202POPC   C24 9968   5.505   1.959   3.063 -0.0067  0.5269 -0.6005
  202POPC   H4R 9969   5.398   1.988   3.053 -0.2942 -0.3585 -0.1823
  202POPC   H4S 9970   5.533   2.020   3.152 -2.3944  0.5561  0.1996
  202POPC   C25 9971   5.523   1.806   3.092 -0.2144 -0.4977 -0.1364
  202POPC   H5R 9972   5.488   1.748   3.004 -0.6530  0.6611 -0.7504
  202POPC   H5S 9973   5.444   1.776   3.164 -0.0957  0.8048  0.5656
  202POPC   C26 9974   5.668   1.773   3.151  0.0551 -0.0326  0.3450
  202POPC   H6R 9975   5.734   1.791   3.063 -0.6005  0.6749 -0.0163
  202POPC   H6S 9976   5.659   1.664   3.165 -0.5318  0.2411  2.3701
  202POPC   C27 9977   5.701   1.838   3.284  0.4609 -0.2881 -0.3580
  202POPC   H7R 9978   5.726   1.942   3.254  0.3371 -0.2471 -0.3181
  202POPC   H7S 9979   5.791   1.786   3.323 -0.7180 -1.5607  0.7966
  202POPC   C28 9980   5.602   1.826   3.402 -1.1001 -0.6617  0.1676
  202POPC   H8R 9981   5.592   1.719   3.427  2.9803 -0.6190  3.0220
  202POPC   H8S 9982   5.500   1.864   3.377 -0.5557  1.3716  0.8150
  202POPC   C29 9983   5.657   1.899   3.527 -0.0057  0.7361  0.0552
  202POPC   H91 9984   5.740   1.847   3.577 -0.4583  1.2518  1.3761
  202POPC  C210 9985   5.617   2.020   3.566  0.5536 -0.4496  0.5794
  202POPC  H101 9986   5.682   2.071   3.639  0.1902 -0.5629  0.9829
  202POPC  C211 9987   5.517   2.116   3.506 -0.0438  0.0554  0.3460
  202POPC  H11R 9988   5.432   2.122   3.576 -1.3871 -1.0885 -1.1202
  202POPC  H11S 9989   5.472   2.085   3.409  1.1184 -3.2754  0.7599
  202POPC  C212 9990   5.587   2.258   3.478 -0.3860  0.0564 -0.3916
  202POPC  H12R 9991   5.696   2.240   3.470 -0.5428 -0.2636 -2.0699
  202POPC  H12S 9992   5.568   2.322   3.567  0.6503  0.5837 -0.5321
  202POPC  C213 9993   5.534   2.328   3.351  0.0997 -0.5183 -0.8775
  202POPC  H13R 9994   5.425   2.330   3.370  0.3975 -3.1033  1.9075
  202POPC  H13S 9995   5.557   2.264   3.264 -1.5012 -1.7221 -0.4452
  202POPC  C214 9996   5.583   2.472   3.335  0.0580 -0.1198 -0.1864
  202POPC  H14R 9997   5.693   2.464   3.322  0.1584 -0.9458  0.9560
  202POPC  H14S 9998   5.549   2.545   3.412 -1.5937 -0.7452 -0.2756
  202POPC  C215 9999   5.545   2.529   3.198  0.1532 -0.3423  0.8580
  202POPC  H15R10000   5.441   2.563   3.218  0.6421  0.1421  2.7292
  202POPC  H15S10001   5.542   2.449   3.120  2.5364 -0.9107  1.2647
  202POPC  C21610002   5.617   2.647   3.138 -0.4646 -0.2763 -0.0032
  202POPC  H16R10003   5.614   2.725   3.217  1.9023 -1.2815  1.1480
  202POPC  H16S10004   5.561   2.673   3.045  0.3808 -0.1751 -0.4943
  202POPC  C21710005   5.767   2.622   3.097 -0.1894  0.5383 -0.3293
  202POPC  H17R10006   5.761   2.532   3.031  0.2329  0.9377 -0.9143
  202POPC  H17S10007   5.821   2.598   3.191 -0.1305  0.0927 -0.4717
  202POPC  C21810008   5.822   2.746   3.030 -0.0780 -0.1795  0.1297
  202POPC  H18R10009   5.769   2.763   2.934  0.3379 -0.2112 -0.1070
  202POPC  H18S10010   5.926   2.721   3.001 -1.2609 -2.1284 -3.0762
  202POPC  H18T10011   5.825   2.836   3.094  0.2259 -0.4626  0.5193
  202POPC   C3310012   6.183   2.319   3.082 -0.1519 -0.0581 -0.5890
  202POPC   H3X10013   6.201   2.338   3.190 -0.8339 -0.5013 -0.3899
  202POPC   H3Y10014   6.261   2.379   3.032  2.1452 -1.6494  0.8896
  202POPC   C3410015   6.188   2.160   3.067  0.3316  0.7273  0.4739
  202POPC   H4X10016   6.288   2.127   3.104  0.1643  3.1870  3.5374
  202POPC   H4Y10017   6.167   2.142   2.960 -1.5080  0.3227  0.8647
  202POPC   C3510018   6.086   2.080   3.149 -0.3972 -0.3395  0.2032
  202POPC   H5X10019   6.093   1.975   3.114  1.6495 -0.0038 -0.4978
  202POPC   H5Y10020   5.979   2.109   3.144 -0.1162  1.5337  2.8091
  202POPC   C3610021   6.129   2.069   3.295 -0.3349 -0.9284  0.2736
  202POPC   H6X10022   6.149   2.169   3.339 -0.1535 -0.5638 -0.6168
  202POPC   H6Y10023   6.227   2.019   3.310 -0.1962 -1.0788 -1.0236
  202POPC   C3710024   6.034   1.988   3.380  0.0927 -0.2167  0.2156
  202POPC   H7X10025   5.981   1.917   3.313  1.0000 -1.5497  0.8686
  202POPC   H7Y10026   5.961   2.055   3.430 -1.1525 -0.2591 -1.4416
  202POPC   C3810027   6.104   1.909   3.495  0.6465  0.2911  0.6386
  202POPC   H8X10028   6.020   1.869   3.555  0.1666 -0.7828 -0.6914
  202POPC   H8Y10029   6.146   1.980   3.570 -1.6877  0.5966  1.7576
  202POPC   C3910030   6.206   1.800   3.449 -0.2690  0.3764 -0.4024
  202POPC   H9X10031   6.298   1.852   3.416  0.3039  0.0150  0.5800
  202POPC   H9Y10032   6.178   1.750   3.354 -0.3758 -1.5290  0.5748
  202POPC  C31010033   6.247   1.702   3.565 -0.0400 -0.0203 -0.5421
  202POPC  H10X10034   6.338   1.645   3.534 -0.0771  0.1519 -0.9705
  202POPC  H10Y10035   6.161   1.634   3.582 -0.2552  0.4115  0.1517
  202POPC  C31110036   6.282   1.762   3.704  0.1651 -0.6199 -0.1534
  202POPC  H11X10037   6.200   1.820   3.751 -0.2206 -0.3118 -1.1913
  202POPC  H11Y10038   6.372   1.826   3.714 -1.2732  1.5641 -0.4794
  202POPC  C31210039   6.311   1.651   3.808 -0.0661 -0.0215  0.8710
  202POPC  H12X10040   6.400   1.595   3.772  0.2609  1.2692 -0.3743
  202POPC  H12Y10041   6.219   1.589   3.823  0.4634 -0.9114  0.4782
  202POPC  C31310042   6.338   1.714   3.941  0.1186  0.0526 -0.0222
  202POPC  H13X10043   6.247   1.760   3.984 -0.3692  1.4285 -2.3570
  202POPC  H13Y10044   6.418   1.792   3.941 -0.7653  1.0199 -2.0111
  202POPC  C31410045   6.398   1.603   4.033  0.0625 -0.3573 -1.0756
  202POPC  H14X10046   6.503   1.573   4.011 -0.7408 -3.3057 -1.2953
  202POPC  H14Y10047   6.334   1.513   4.023 -1.7372  0.5206  1.4607
  202POPC  C31510048   6.387   1.645   4.181 -0.8981  0.1713 -0.4887
  202POPC  H15X10049   6.456   1.727   4.209 -1.4428 -0.8649  5.1712
  202POPC  H15Y10050   6.426   1.568   4.251 -0.0245  0.8872 -0.1652
  202POPC  C31610051   6.243   1.655   4.243  0.5653 -0.0149  0.4287
  202POPC  H16X10052   6.249   1.710   4.339  2.3473  1.8155 -0.6631
  202POPC  H16Y10053   6.193   1.556   4.252  2.9261 -1.1228  2.8925
  202POPC  H16Z10054   6.182   1.718   4.175  0.5372 -0.1231  0.3535
  203POPC     N10055   1.176   4.261   2.747  0.2333 -0.0863 -0.3145
  203POPC   C1210056   1.138   4.177   2.871 -0.5176 -0.0712 -0.1941
  203POPC  H12A10057   1.063   4.106   2.839 -0.5613  0.9508 -2.5108
  203POPC  H12B10058   1.095   4.239   2.948  0.0975 -1.4173  1.3105
  203POPC   C1310059   1.061   4.331   2.689 -0.0423 -0.5348  0.8831
  203POPC  H13A10060   1.100   4.387   2.606  0.6227 -0.4931  1.2188
  203POPC  H13B10061   0.983   4.264   2.657  0.8935 -2.1132  1.7875
  203POPC  H13C10062   1.029   4.404   2.762  1.9778  2.2664 -0.8358
  203POPC   C1410063   1.290   4.343   2.786 -0.2143  0.3612  0.1428
  203POPC  H14A10064   1.334   4.398   2.704 -3.7435  2.7231 -0.3799
  203POPC  H14B10065   1.261   4.418   2.858 -0.8905 -0.6437  0.9382
  203POPC  H14C10066   1.364   4.280   2.834  1.3615  1.6092 -0.5271
  203POPC   C1510067   1.213   4.158   2.639 -0.8294  0.0762  0.4727
  203POPC  H15A10068   1.127   4.107   2.599 -1.5327  0.2581  1.6869
  203POPC  H15B10069   1.278   4.077   2.671 -0.6874 -0.4017 -0.9493
  203POPC  H15C10070   1.262   4.220   2.566 -0.0282  1.0263  1.7770
  203POPC   C1110071   1.240   4.098   2.954 -0.2477  0.8332 -0.3988
  203POPC  H11A10072   1.181   4.078   3.046 -1.5305  3.1089 -0.6562
  203POPC  H11B10073   1.324   4.168   2.975  0.9989 -0.9356  0.8389
  203POPC     P10074   1.223   3.837   2.923 -0.0551  0.2807 -0.3230
  203POPC   O1310075   1.266   3.748   2.812 -0.4167  0.1752  0.2780
  203POPC   O1410076   1.075   3.851   2.953 -0.4668  0.0649 -0.6003
  203POPC   O1210077   1.292   3.978   2.894 -0.0037  0.0587  0.1928
  203POPC   O1110078   1.292   3.795   3.053  0.0627 -0.7940 -0.3208
  203POPC    C110079   1.386   3.697   3.082 -0.6053  0.1645  0.7078
  203POPC    HA10080   1.439   3.705   3.180  0.1115 -2.2951  0.5885
  203POPC    HB10081   1.470   3.690   3.009 -0.1747 -0.2130  1.2293
  203POPC    C210082   1.317   3.557   3.089  0.1509 -0.2194 -0.3787
  203POPC    HS10083   1.260   3.550   2.993 -2.6937  3.6427  0.8081
  203POPC   O2110084   1.223   3.576   3.195  0.2164 -0.4794  0.3975
  203POPC   C2110085   1.121   3.492   3.216  0.4155  0.3148 -0.0245
  203POPC   O2210086   1.094   3.395   3.142 -0.2649 -0.0890  0.1129
  203POPC   C2210087   1.040   3.534   3.339 -0.1869 -0.7302  1.0821
  203POPC   H2R10088   0.948   3.586   3.305 -0.8450 -1.0191  2.3594
  203POPC   H2S10089   1.108   3.597   3.400  0.4494 -0.4732  0.1271
  203POPC    C310090   1.405   3.435   3.110  0.4743 -0.6427  0.3189
  203POPC    HX10091   1.461   3.419   3.016 -3.5218 -1.3347 -2.1967
  203POPC    HY10092   1.343   3.343   3.111  1.6708 -1.4719  0.3928
  203POPC   O3110093   1.489   3.461   3.226 -0.1709 -0.5563 -0.2146
  203POPC   C3110094   1.438   3.409   3.336  0.1251  0.9689 -0.0895
  203POPC   O3210095   1.338   3.343   3.346  0.2026 -0.3509  0.6092
  203POPC   C3210096   1.538   3.425   3.456 -0.9106  0.4821 -0.3572
  203POPC   H2X10097   1.641   3.409   3.416 -0.6946 -1.7442  0.9262
  203POPC   H2Y10098   1.522   3.343   3.529 -3.1728  0.9728 -0.2198
  203POPC   C2310099   1.005   3.422   3.428  0.7565  0.1824 -0.2389
  203POPC   H3R10100   1.104   3.384   3.462  0.1473 -1.4315 -0.1476
  203POPC   H3S10101   0.960   3.348   3.358  1.6012  1.1298 -1.8349
  203POPC   C2410102   0.910   3.450   3.541  0.0757  0.3647  0.1876
  203POPC   H4R10103   0.943   3.534   3.606 -0.4115  0.1708  0.6893
  203POPC   H4S10104   0.910   3.353   3.595  1.1707 -1.6978 -3.1873
  203POPC   C2510105   0.772   3.482   3.493  0.2692 -0.6857 -0.0287
  203POPC   H5R10106   0.747   3.413   3.409 -0.6604  0.6735 -0.9171
  203POPC   H5S10107   0.767   3.578   3.437  0.4532 -0.2686  0.6578
  203POPC   C2610108   0.661   3.471   3.589  0.0425 -0.2227  0.2421
  203POPC   H6R10109   0.656   3.557   3.659 -0.2690  0.9534 -1.1796
  203POPC   H6S10110   0.674   3.381   3.652 -1.8965 -0.4928  0.3199
  203POPC   C2710111   0.529   3.448   3.519  0.5931 -0.2720 -0.0885
  203POPC   H7R10112   0.545   3.353   3.464  0.6180  0.6402 -1.7206
  203POPC   H7S10113   0.503   3.522   3.441  2.1444 -1.0086 -1.3781
  203POPC   C2810114   0.421   3.439   3.630 -0.6234 -0.2149  0.0159
  203POPC   H8R10115   0.406   3.536   3.681 -0.5165 -0.7783  1.1512
  203POPC   H8S10116   0.473   3.366   3.696  0.1099  3.3040  3.6732
  203POPC   C2910117   0.300   3.380   3.565  0.3896 -0.3123  0.6766
  203POPC   H9110118   0.217   3.445   3.535 -0.0521 -1.1815 -0.0290
  203POPC  C21010119   0.270   3.255   3.539 -0.2582 -0.2517 -0.8691
  203POPC  H10110120   0.183   3.223   3.480 -0.0025 -1.8989 -0.3850
  203POPC  C21110121   0.349   3.143   3.605 -0.4684 -0.3802 -0.4174
  203POPC  H11R10122   0.458   3.161   3.615  0.5827 -4.3930 -2.4860
  203POPC  H11S10123   0.337   3.056   3.536  0.2898 -0.8662  0.0443
  203POPC  C21210124   0.290   3.104   3.746  0.1687 -0.0139  0.8316
  203POPC  H12R10125   0.345   3.170   3.816  0.1938  0.2504  0.5671
  203POPC  H12S10126   0.329   3.003   3.770 -0.3005 -0.0598  1.4405
  203POPC  C21310127   0.136   3.103   3.750  0.1550  0.7406  0.7278
  203POPC  H13R10128   0.097   3.191   3.696  0.8345 -0.8276 -2.5529
  203POPC  H13S10129   0.100   3.093   3.855  0.5172 -1.3615  0.6984
  203POPC  C21410130   0.078   2.992   3.664  0.0796  0.2109 -0.6101
  203POPC  H14R10131   0.108   3.021   3.561 -2.4004  1.3844 -1.0796
  203POPC  H14S10132  -0.033   2.989   3.656  0.1139  0.9840 -1.7478
  203POPC  C21510133   0.125   2.846   3.694 -0.6180 -1.1652  0.2168
  203POPC  H15R10134   0.236   2.847   3.691 -0.5643  0.3234  1.3543
  203POPC  H15S10135   0.079   2.780   3.618  0.3859 -2.3086  0.5689
  203POPC  C21610136   0.094   2.797   3.833  0.4843  0.1804  0.5867
  203POPC  H16R10137  -0.011   2.819   3.860  0.8461  1.1432  1.2790
  203POPC  H16S10138   0.147   2.863   3.905  0.9019  0.3266  0.1518
  203POPC  C21710139   0.134   2.656   3.849 -1.2576  0.7870  0.3034
  203POPC  H17R10140   0.244   2.649   3.837 -1.0739  2.7788  0.6184
  203POPC  H17S10141   0.075   2.601   3.772 -1.7439  2.2436 -0.3895
  203POPC  C21810142   0.105   2.593   3.981  0.0544  0.3573 -0.0384
  203POPC  H18R10143  -0.000   2.603   4.015  0.1517 -0.6688  0.6275
  203POPC  H18S10144   0.166   2.645   4.058 -0.0475  2.1018 -1.0828
  203POPC  H18T10145   0.133   2.486   3.989 -1.7949 -0.1521 -0.0841
  203POPC   C3310146   1.532   3.564   3.529 -0.3096 -0.5508  0.6061
  203POPC   H3X10147   1.537   3.637   3.445  5.1510 -0.6000  0.5083
  203POPC   H3Y10148   1.621   3.580   3.594 -0.5438 -0.2924  0.8640
  203POPC   C3410149   1.397   3.590   3.609  0.8637 -0.2687  0.4155
  203POPC   H4X10150   1.319   3.538   3.549  0.3642  0.1788  0.6637
  203POPC   H4Y10151   1.372   3.698   3.607  1.2287 -0.1194  2.2833
  203POPC   C3510152   1.392   3.548   3.747 -1.2354 -0.3622 -0.3377
  203POPC   H5X10153   1.481   3.590   3.797 -1.2605  0.3207 -0.8433
  203POPC   H5Y10154   1.394   3.437   3.749  1.9003 -0.3707  0.1526
  203POPC   C3610155   1.270   3.604   3.823  0.0861 -0.8470 -0.7527
  203POPC   H6X10156   1.176   3.580   3.769  0.5630  1.4363 -2.7822
  203POPC   H6Y10157   1.279   3.713   3.801  2.1650 -1.1012 -1.3854
  203POPC   C3710158   1.272   3.585   3.975  0.4654  0.5448 -0.2750
  203POPC   H7X10159   1.192   3.641   4.028  0.0074  2.9432 -3.2096
  203POPC   H7Y10160   1.369   3.622   4.016  0.3850  0.1649  0.2681
  203POPC   C3810161   1.244   3.438   4.006 -0.5343 -1.0265 -0.8708
  203POPC   H8X10162   1.312   3.416   4.091  1.5474  0.2091 -2.1463
  203POPC   H8Y10163   1.279   3.356   3.940 -0.2707 -0.7447 -1.0823
  203POPC   C3910164   1.093   3.409   4.029  0.7095  0.0736 -0.4956
  203POPC   H9X10165   1.082   3.298   4.035  1.5230 -0.1311 -2.0944
  203POPC   H9Y10166   1.041   3.441   3.936  1.8433  1.0477 -0.8087
  203POPC  C31010167   1.035   3.483   4.155 -0.3705  0.3478 -0.0402
  203POPC  H10X10168   1.021   3.591   4.131 -1.5777  0.3782  0.7100
  203POPC  H10Y10169   1.101   3.488   4.244 -2.0128  2.1021  1.1648
  203POPC  C31110170   0.911   3.421   4.209  0.5266 -0.0748  0.6186
  203POPC  H11X10171   0.875   3.482   4.295 -2.7379  0.2819 -0.8589
  203POPC  H11Y10172   0.939   3.318   4.239 -1.4311 -0.6483  0.6340
  203POPC  C31210173   0.794   3.413   4.104  0.9827 -0.1860  0.2605
  203POPC  H12X10174   0.710   3.348   4.136  0.9672 -0.3936 -0.1833
  203POPC  H12Y10175   0.828   3.370   4.007 -2.9949 -1.5189 -0.7379
  203POPC  C31310176   0.738   3.549   4.071 -1.6318 -0.3703  0.4890
  203POPC  H13X10177   0.826   3.612   4.047 -1.6390  0.9704  3.4628
  203POPC  H13Y10178   0.692   3.593   4.163 -1.7931  0.6503 -0.0580
  203POPC  C31410179   0.639   3.544   3.959  0.5392  0.8545  0.4974
  203POPC  H14X10180   0.557   3.476   3.990  0.4932  0.2811 -0.8048
  203POPC  H14Y10181   0.692   3.491   3.877  0.5027  0.7805  0.5219
  203POPC  C31510182   0.585   3.684   3.918  0.0084 -0.3822  0.1178
  203POPC  H15X10183   0.519   3.730   3.995 -0.1297  0.0664 -0.2692
  203POPC  H15Y10184   0.516   3.655   3.835  0.6974 -0.4064 -0.4527
  203POPC  C31610185   0.683   3.788   3.878 -0.5285  0.5076  0.1487
  203POPC  H16X10186   0.762   3.807   3.954  0.8180 -1.7830 -0.5686
  203POPC  H16Y10187   0.631   3.881   3.848 -0.1391  0.5917 -0.2793
  203POPC  H16Z10188   0.739   3.763   3.786  0.8429  1.2908  0.7343
  204POPC     N10189   3.420   4.469   2.843  0.0832  0.4625  0.5169
  204POPC   C1210190   3.533   4.468   2.952  0.0660 -0.2160  0.2751
  204POPC  H12A10191   3.604   4.394   2.917 -0.7493 -1.0108  0.2782
  204POPC  H12B10192   3.489   4.435   3.045 -0.9984 -2.2748 -0.8903
  204POPC   C1310193   3.334   4.596   2.853  0.0449 -0.0887  0.3620
  204POPC  H13A10194   3.280   4.600   2.947  1.0698  0.7591  0.9382
  204POPC  H13B10195   3.400   4.681   2.861 -0.4212  0.4143 -0.9914
  204POPC  H13C10196   3.257   4.611   2.780  0.0506 -0.0157  0.3712
  204POPC   C1410197   3.467   4.467   2.704 -0.1867  0.4510  0.4588
  204POPC  H14A10198   3.508   4.565   2.684 -1.4917  1.0333  0.5166
  204POPC  H14B10199   3.522   4.375   2.693 -2.5396 -0.9341 -0.6291
  204POPC  H14C10200   3.397   4.443   2.625  1.1263 -0.1249 -0.5676
  204POPC   C1510201   3.336   4.345   2.866 -0.4441  0.1721 -0.1062
  204POPC  H15A10202   3.288   4.348   2.963 -0.3874  1.4150 -0.1094
  204POPC  H15B10203   3.405   4.262   2.869 -0.8394 -0.1833 -0.6921
  204POPC  H15C10204   3.260   4.325   2.792 -1.1507 -1.7379  1.0478
  204POPC   C1110205   3.625   4.595   2.983  0.4377  0.1494  0.0882
  204POPC  H11A10206   3.694   4.567   3.065 -0.1607 -1.6796  0.0039
  204POPC  H11B10207   3.553   4.671   3.021  0.5599  1.4175 -1.9999
  204POPC     P10208   3.840   4.606   2.830 -0.1088  0.5277 -0.1431
  204POPC   O1310209   3.924   4.725   2.805  0.1781 -0.6894  0.1314
  204POPC   O1410210   3.836   4.507   2.716  0.5323 -0.6561 -0.3781
  204POPC   O1210211   3.686   4.641   2.865  0.0355  0.5401  0.6152
  204POPC   O1110212   3.898   4.517   2.949 -0.2030 -0.1419 -0.1523
  204POPC    C110213   4.028   4.533   2.997 -0.6016 -0.0701 -0.1999
  204POPC    HA10214   4.033   4.623   3.061  1.7114  0.5194 -1.1070
  204POPC    HB10215   4.105   4.546   2.918 -1.1994  2.5512 -0.4312
  204POPC    C210216   4.070   4.402   3.072 -0.3083  1.0074 -0.1896
  204POPC    HS10217   4.102   4.324   2.999 -0.7964  0.0760  0.5786
  204POPC   O2110218   3.963   4.360   3.161  0.6248  0.2483  0.6426
  204POPC   C2110219   3.892   4.251   3.127  0.2108  0.7408 -0.3575
  204POPC   O2210220   3.911   4.193   3.021  0.1557  0.3143 -0.0409
  204POPC   C2210221   3.794   4.214   3.241  0.1030 -0.0801 -0.2177
  204POPC   H2R10222   3.705   4.167   3.195  1.1176 -2.7434  0.3410
  204POPC   H2S10223   3.762   4.307   3.293 -0.2653 -0.7365  0.7671
  204POPC    C310224   4.204   4.432   3.150  0.0632  0.4210 -0.4111
  204POPC    HX10225   4.196   4.523   3.213  1.5697  0.5169 -0.3059
  204POPC    HY10226   4.289   4.448   3.080  0.0645  0.0339 -0.4995
  204POPC   O3110227   4.231   4.329   3.256 -0.0909 -0.5704  0.3715
  204POPC   C3110228   4.295   4.223   3.217 -0.6533  0.3792 -0.1247
  204POPC   O3210229   4.344   4.203   3.106  0.1671 -0.0555 -0.3902
  204POPC   C3210230   4.300   4.133   3.334  0.4085  0.4257 -0.5356
  204POPC   H2X10231   4.223   4.167   3.407 -0.8060  1.1936 -2.0983
  204POPC   H2Y10232   4.402   4.136   3.377 -0.1909 -2.6051  1.3717
  204POPC   C2310233   3.841   4.105   3.341 -0.3132 -0.2849  0.8300
  204POPC   H3R10234   3.951   4.114   3.354 -0.4690 -0.2119  2.2337
  204POPC   H3S10235   3.824   4.008   3.291  0.9625 -0.4843  0.7503
  204POPC   C2410236   3.777   4.119   3.479 -0.2563  1.0195  0.2535
  204POPC   H4R10237   3.669   4.103   3.462  0.0034  1.5181 -2.2858
  204POPC   H4S10238   3.799   4.220   3.520  0.1342  0.9067  0.3288
  204POPC   C2510239   3.829   4.014   3.579  0.3681  0.6827  0.4847
  204POPC   H5R10240   3.931   4.038   3.615  1.0948 -2.1190  0.5068
  204POPC   H5S10241   3.826   3.910   3.541 -1.3943  0.8700  0.0312
  204POPC   C2610242   3.741   4.013   3.711 -0.0409  0.3646 -0.4289
  204POPC   H6R10243   3.638   3.990   3.676 -0.3252 -1.3094  1.3523
  204POPC   H6S10244   3.731   4.115   3.753  0.0297  1.1022 -2.1436
  204POPC   C2710245   3.785   3.900   3.809 -0.7600  0.3486  0.3656
  204POPC   H7R10246   3.893   3.921   3.825  0.2603 -3.6317 -0.2481
  204POPC   H7S10247   3.780   3.803   3.756 -2.3835  1.9334 -2.7017
  204POPC   C2810248   3.718   3.894   3.945  0.2238 -0.1827  0.1024
  204POPC   H8R10249   3.733   3.992   3.994  0.8962 -0.0359 -0.3813
  204POPC   H8S10250   3.777   3.817   3.999  1.8674  1.1358  0.2579
  204POPC   C2910251   3.571   3.857   3.931 -0.1001  0.1944 -0.4916
  204POPC   H9110252   3.551   3.792   3.844 -0.6996  0.4065 -0.5146
  204POPC  C21010253   3.467   3.918   3.995 -0.6789  0.3925  0.0067
  204POPC  H10110254   3.366   3.879   3.975  0.0006 -1.3653 -0.2412
  204POPC  C21110255   3.492   4.016   4.108 -0.1394 -0.1032  0.5146
  204POPC  H11R10256   3.526   4.117   4.076  0.2875 -0.2071  0.6314
  204POPC  H11S10257   3.580   3.986   4.168 -1.7351 -1.7341  2.1713
  204POPC  C21210258   3.376   4.033   4.206 -0.0206  0.3854 -0.0155
  204POPC  H12R10259   3.358   3.936   4.258  1.1599 -0.7371 -1.6108
  204POPC  H12S10260   3.292   4.063   4.140  0.1812  3.1832  0.8673
  204POPC  C21310261   3.400   4.144   4.307  0.1657 -0.1643 -0.0684
  204POPC  H13R10262   3.321   4.150   4.385  2.1899 -0.4750  2.1361
  204POPC  H13S10263   3.409   4.239   4.250 -2.0015  1.1279  1.5732
  204POPC  C21410264   3.527   4.137   4.394  0.1008 -0.1771  0.2305
  204POPC  H14R10265   3.541   4.230   4.452 -0.3407 -1.0882  1.8548
  204POPC  H14S10266   3.619   4.119   4.334  1.2060 -3.0690  2.5178
  204POPC  C21510267   3.515   4.018   4.479 -0.0414 -0.4245 -1.2326
  204POPC  H15R10268   3.516   3.922   4.423  2.9025 -0.0783 -1.9469
  204POPC  H15S10269   3.417   4.012   4.530  0.5987 -1.5111 -0.0747
  204POPC  C21610270   3.620   4.022   4.595 -0.0808 -0.2330  0.5720
  204POPC  H16R10271   3.606   4.116   4.654 -0.5099  0.6818 -0.9328
  204POPC  H16S10272   3.719   4.030   4.545  0.1939 -1.2663  0.9170
  204POPC  C21710273   3.613   3.901   4.688 -0.4435 -0.0626 -0.2501
  204POPC  H17R10274   3.511   3.864   4.713 -0.4710 -0.5048 -1.0007
  204POPC  H17S10275   3.660   3.924   4.786 -2.8294  1.0761  0.7155
  204POPC  C21810276   3.678   3.774   4.622 -0.5846  0.3925 -0.2004
  204POPC  H18R10277   3.782   3.781   4.582 -0.3737 -0.2939  0.2118
  204POPC  H18S10278   3.618   3.751   4.531 -1.1428  1.2841 -0.0765
  204POPC  H18T10279   3.693   3.692   4.695  0.0143 -0.2035 -0.9781
  204POPC   C3310280   4.257   3.991   3.293 -0.0096  0.3485  0.0144
  204POPC   H3X10281   4.337   3.942   3.233  0.3558  0.1761  0.6311
  204POPC   H3Y10282   4.165   3.986   3.231 -0.9456 -1.2319  1.4655
  204POPC   C3410283   4.228   3.899   3.411 -0.2779  0.0174 -0.2427
  204POPC   H4X10284   4.194   3.806   3.361 -2.1694  1.2404 -1.3679
  204POPC   H4Y10285   4.146   3.945   3.470 -0.4343  0.4560 -0.7914
  204POPC   C3510286   4.347   3.873   3.507  0.3982  0.6521 -0.6156
  204POPC   H5X10287   4.370   3.970   3.556 -2.1764  0.2255  1.6543
  204POPC   H5Y10288   4.430   3.830   3.446  0.8178  1.2332 -0.4648
  204POPC   C3610289   4.312   3.764   3.613 -0.5682 -0.9383 -0.1004
  204POPC   H6X10290   4.398   3.753   3.682 -1.1650 -0.6131  0.7085
  204POPC   H6Y10291   4.295   3.660   3.579 -2.5206 -1.0954  1.1535
  204POPC   C3710292   4.184   3.802   3.686 -0.0012  0.1238  0.1551
  204POPC   H7X10293   4.095   3.786   3.622 -1.3274  2.3321  1.3255
  204POPC   H7Y10294   4.194   3.904   3.729  0.3636  1.1720 -2.2997
  204POPC   C3810295   4.165   3.706   3.806 -0.3026  0.0138 -0.5998
  204POPC   H8X10296   4.171   3.600   3.773  0.8196 -0.3135  0.5649
  204POPC   H8Y10297   4.061   3.722   3.842 -0.2528 -2.0448  0.5906
  204POPC   C3910298   4.264   3.744   3.919  0.5437  0.4529 -0.5069
  204POPC   H9X10299   4.267   3.855   3.920 -0.2625  0.4819  0.9516
  204POPC   H9Y10300   4.369   3.715   3.897  0.8413 -0.6891  2.0872
  204POPC  C31010301   4.241   3.676   4.057 -0.1700  0.5406 -0.7309
  204POPC  H10X10302   4.152   3.729   4.099 -0.6155  0.6897 -1.8159
  204POPC  H10Y10303   4.336   3.686   4.113 -0.1691 -1.2721 -0.3540
  204POPC  C31110304   4.213   3.529   4.035 -0.0121 -0.3529 -0.7201
  204POPC  H11X10305   4.298   3.491   3.975 -1.2210  0.1015 -2.8533
  204POPC  H11Y10306   4.123   3.505   3.974 -1.0468  0.7995  0.2932
  204POPC  C31210307   4.203   3.441   4.169  0.4644 -0.1886  0.3729
  204POPC  H12X10308   4.103   3.460   4.212  0.6665  0.5377  0.5395
  204POPC  H12Y10309   4.277   3.471   4.246 -0.6519  1.5388  0.8185
  204POPC  C31310310   4.216   3.284   4.141 -0.0789 -0.4031  0.0365
  204POPC  H13X10311   4.321   3.271   4.109  0.9678  1.3424  2.4035
  204POPC  H13Y10312   4.140   3.256   4.065 -0.3925 -2.7062  1.1248
  204POPC  C31410313   4.199   3.195   4.265 -0.3345  0.1178 -0.0792
  204POPC  H14X10314   4.097   3.211   4.305  0.1060  1.5742  0.5361
  204POPC  H14Y10315   4.270   3.210   4.349  0.0164 -1.5068 -0.0659
  204POPC  C31510316   4.211   3.042   4.228  0.1690 -0.0644  0.1830
  204POPC  H15X10317   4.319   3.019   4.221 -0.0373 -0.6932 -1.1087
  204POPC  H15Y10318   4.168   3.025   4.127  0.1047 -0.2764  0.2449
  204POPC  C31610319   4.135   2.956   4.329  0.2399 -0.7158 -0.7527
  204POPC  H16X10320   4.190   2.974   4.424  1.4680 -0.6370 -1.4429
  204POPC  H16Y10321   4.139   2.848   4.301 -0.3170 -0.7698 -0.6335
  204POPC  H16Z10322   4.027   2.978   4.328  0.0641 -1.5249 -0.1391
  205POPC     N10323   5.758   5.822   2.440 -0.2473 -0.7582  0.2473
  205POPC   C1210324   5.858   5.892   2.529  0.8950 -0.1126 -0.1938
  205POPC  H12A10325   5.865   5.835   2.620 -1.1872  1.0461  0.7662
  205POPC  H12B10326   5.819   5.987   2.563 -0.8666 -0.3250 -1.4555
  205POPC   C1310327   5.803   5.679   2.413  0.4555  0.0477  0.3486
  205POPC  H13A10328   5.904   5.668   2.376 -0.3296 -0.6803 -1.6943
  205POPC  H13B10329   5.798   5.618   2.502 -0.5770  0.1742  0.3833
  205POPC  H13C10330   5.737   5.637   2.339 -1.4670 -0.5765  2.3066
  205POPC   C1410331   5.625   5.822   2.507  0.2071 -0.4201  0.8046
  205POPC  H14A10332   5.557   5.790   2.430  2.6668 -3.3958 -0.3357
  205POPC  H14B10333   5.625   5.746   2.584  2.5762 -1.3231 -0.0007
  205POPC  H14C10334   5.607   5.918   2.554 -1.0845 -1.5185  2.7048
  205POPC   C1510335   5.741   5.885   2.304 -0.1820 -0.6748 -0.1564
  205POPC  H15A10336   5.671   5.838   2.238 -0.2594 -2.2951  1.0185
  205POPC  H15B10337   5.838   5.907   2.260 -0.0882  1.2445  0.8957
  205POPC  H15C10338   5.706   5.985   2.327  0.0965 -0.4108 -0.8374
  205POPC   C1110339   6.000   5.914   2.471 -0.4054  0.1360  0.0226
  205POPC  H11A10340   6.064   5.970   2.543  2.2339  1.1184 -2.8418
  205POPC  H11B10341   5.990   5.974   2.379  1.2003 -0.9891 -0.9347
  205POPC     P10342   6.154   5.708   2.542  0.2751  0.1842  0.6513
  205POPC   O1310343   6.300   5.727   2.517  0.1022  0.0734 -0.4176
  205POPC   O1410344   6.109   5.571   2.533  0.0673  0.0275 -0.0589
  205POPC   O1210345   6.066   5.788   2.436 -0.0268  0.2187 -0.9939
  205POPC   O1110346   6.117   5.762   2.686 -0.5614 -0.0835  0.7418
  205POPC    C110347   6.205   5.858   2.755  0.0026  0.6223  1.0836
  205POPC    HA10348   6.139   5.926   2.814 -1.9867 -0.0143 -0.2944
  205POPC    HB10349   6.258   5.926   2.685  1.7618  0.2527  2.0099
  205POPC    C210350   6.313   5.786   2.837  0.2758  0.1708  0.0054
  205POPC    HS10351   6.362   5.712   2.770  1.4471 -0.6229  1.6613
  205POPC   O2110352   6.243   5.718   2.946 -0.0403 -0.2386  0.1836
  205POPC   C2110353   6.282   5.596   2.977  0.2598 -0.5343 -0.0950
  205POPC   O2210354   6.384   5.544   2.935 -0.1544  0.5551 -0.5282
  205POPC   C2210355   6.183   5.527   3.082  0.5518  0.0812  0.3086
  205POPC   H2R10356   6.106   5.472   3.024  1.7277 -0.9531 -0.3078
  205POPC   H2S10357   6.133   5.611   3.134  0.6377 -1.2107  2.6080
  205POPC    C310358   6.418   5.891   2.882  0.0607 -0.5040 -0.1582
  205POPC    HX10359   6.373   5.973   2.942 -0.6149  0.6358 -2.1500
  205POPC    HY10360   6.451   5.938   2.787 -2.1324 -0.5048 -0.9730
  205POPC   O3110361   0.082   5.841   2.956 -0.0523  0.3359 -0.2422
  205POPC   C3110362   0.180   5.782   2.880  1.1301  0.0207  0.3124
  205POPC   O3210363   0.177   5.775   2.760 -0.1664  0.7343  0.3912
  205POPC   C3210364   0.281   5.722   2.977 -0.1969  0.2638  0.0612
  205POPC   H2X10365   0.303   5.795   3.058 -1.5897 -1.3581  2.0211
  205POPC   H2Y10366   0.372   5.694   2.920 -1.3845 -1.4018 -1.1372
  205POPC   C2310367   6.247   5.441   3.190 -0.1708  0.5593 -0.5821
  205POPC   H3R10368   6.268   5.505   3.278 -1.6160 -1.5861  1.4504
  205POPC   H3S10369   6.350   5.419   3.157  0.4617 -0.3338  1.8030
  205POPC   C2410370   6.175   5.312   3.223 -0.1621 -0.4239  0.0571
  205POPC   H4R10371   6.224   5.280   3.317  2.7128  0.4747 -1.0488
  205POPC   H4S10372   6.195   5.241   3.140 -2.8926 -0.1845 -0.9136
  205POPC   C2510373   6.025   5.332   3.239 -0.1932 -0.4642  0.1447
  205POPC   H5R10374   5.982   5.229   3.241 -0.1035 -0.6344 -2.6663
  205POPC   H5S10375   5.987   5.379   3.146  1.7479 -0.4917 -0.7001
  205POPC   C2610376   5.974   5.426   3.348  0.5814  0.0043 -0.3375
  205POPC   H6R10377   5.865   5.445   3.340  0.2543 -0.0714  2.7442
  205POPC   H6S10378   6.027   5.524   3.353  0.7464 -0.0529 -0.9182
  205POPC   C2710379   5.988   5.367   3.492 -0.0666  0.0227 -0.4673
  205POPC   H7R10380   5.966   5.440   3.572  1.1228 -0.4044  0.2706
  205POPC   H7S10381   6.095   5.342   3.507  0.2764  0.7640 -1.5473
  205POPC   C2810382   5.907   5.243   3.520 -0.5151  0.2010 -0.4036
  205POPC   H8R10383   5.917   5.167   3.441  2.1387 -0.4273  0.4230
  205POPC   H8S10384   5.803   5.280   3.512 -1.0612 -0.9098  1.1640
  205POPC   C2910385   5.931   5.176   3.654 -0.4041 -0.2295 -0.2703
  205POPC   H9110386   6.014   5.104   3.654 -1.8898 -2.0455  1.1296
  205POPC  C21010387   5.877   5.203   3.773 -1.0195  0.1237  0.2897
  205POPC  H10110388   5.912   5.149   3.863  0.3093  1.2967  0.5141
  205POPC  C21110389   5.765   5.303   3.796  0.0414 -0.0880  0.6753
  205POPC  H11R10390   5.681   5.253   3.848 -1.0500  1.7309  0.7275
  205POPC  H11S10391   5.732   5.344   3.699  1.8783 -0.8161 -0.3174
  205POPC  C21210392   5.803   5.424   3.885  0.3877 -0.6435 -0.1273
  205POPC  H12R10393   5.715   5.490   3.875  1.6083  0.9262 -0.8131
  205POPC  H12S10394   5.888   5.475   3.835  1.0832 -1.0834  0.5747
  205POPC  C21310395   5.838   5.393   4.027  0.1074  0.3615  0.2431
  205POPC  H13R10396   5.940   5.349   4.029  0.4924  1.1593 -0.9165
  205POPC  H13S10397   5.774   5.315   4.074 -0.6207  1.7694  1.6854
  205POPC  C21410398   5.849   5.528   4.121 -0.5630  0.5363  0.5623
  205POPC  H14R10399   5.744   5.565   4.125 -1.5476 -2.1245  2.6583
  205POPC  H14S10400   5.927   5.596   4.084 -0.5980 -0.1001 -0.7174
  205POPC  C21510401   5.870   5.493   4.270 -0.5247  0.0902 -0.3426
  205POPC  H15R10402   5.973   5.454   4.283 -0.4179  0.1002 -1.1115
  205POPC  H15S10403   5.801   5.409   4.290 -2.1546  1.8959  2.2122
  205POPC  C21610404   5.818   5.603   4.370  0.3174 -0.7435 -0.1198
  205POPC  H16R10405   5.721   5.640   4.332  0.7546  0.5542 -0.0372
  205POPC  H16S10406   5.896   5.683   4.365  0.8060 -1.2550 -0.8746
  205POPC  C21710407   5.792   5.551   4.514 -0.6139  0.2268 -0.2474
  205POPC  H17R10408   5.744   5.451   4.508 -0.9690  0.4301 -0.8822
  205POPC  H17S10409   5.727   5.624   4.567  1.0821  0.3418  1.8498
  205POPC  C21810410   5.923   5.537   4.593 -0.1036 -0.2379  0.1290
  205POPC  H18R10411   5.966   5.638   4.612  2.3681 -1.2247  0.2427
  205POPC  H18S10412   5.993   5.465   4.546  0.4432 -0.4291  1.1867
  205POPC  H18T10413   5.901   5.486   4.689  0.0990 -1.4293 -0.4467
  205POPC   C3310414   0.227   5.593   3.040  0.5677 -0.2988 -0.0596
  205POPC   H3X10415   0.174   5.532   2.964 -1.1614  3.4587 -2.1716
  205POPC   H3Y10416   0.146   5.626   3.107  0.6678 -0.4622  0.1431
  205POPC   C3410417   0.324   5.532   3.142 -0.1415 -0.0028 -0.2133
  205POPC   H4X10418   0.353   5.618   3.207  0.3202 -0.6637  0.4733
  205POPC   H4Y10419   0.408   5.475   3.096  0.3440  0.6798 -0.1888
  205POPC   C3510420   0.248   5.423   3.220 -0.3608 -0.0208  0.1394
  205POPC   H5X10421   0.316   5.340   3.249  1.4500  1.4180  0.2024
  205POPC   H5Y10422   0.168   5.386   3.152 -2.4352  0.2550  2.2926
  205POPC   C3610423   0.196   5.474   3.354  0.4696 -0.3477  0.0797
  205POPC   H6X10424   0.128   5.555   3.322  0.7943 -1.0075 -2.5551
  205POPC   H6Y10425   0.280   5.524   3.406 -0.8046  1.5505  0.3770
  205POPC   C3710426   0.135   5.364   3.446  0.5718 -0.2136  0.3661
  205POPC   H7X10427   0.211   5.288   3.473  1.1302  0.6956  1.4007
  205POPC   H7Y10428   0.057   5.318   3.381 -0.2691  2.0712 -0.3316
  205POPC   C3810429   0.065   5.415   3.576 -0.1669 -0.4844  0.1694
  205POPC   H8X10430  -0.002   5.501   3.554 -0.8608 -0.2624  2.8603
  205POPC   H8Y10431   0.144   5.453   3.644  0.3284  1.4047 -1.3578
  205POPC   C3910432   6.415   5.304   3.640 -0.6863 -0.3010  0.4488
  205POPC   H9X10433   6.472   5.210   3.652 -1.3324 -0.7729 -0.1426
  205POPC   H9Y10434   6.341   5.274   3.563 -0.0296 -3.8084  1.0142
  205POPC  C31010435   6.360   5.343   3.778  0.1864 -0.4756 -0.2599
  205POPC  H10X10436   6.322   5.447   3.784  2.3402  0.3654 -0.2182
  205POPC  H10Y10437   6.455   5.364   3.832 -1.1385 -0.0824  1.9914
  205POPC  C31110438   6.276   5.243   3.848  0.5829 -0.7704 -0.5269
  205POPC  H11X10439   6.309   5.141   3.819  0.1149 -1.0250 -0.1779
  205POPC  H11Y10440   6.175   5.249   3.803 -0.4710  0.8854  1.8467
  205POPC  C31210441   6.256   5.257   4.000  0.0341 -0.7958 -0.4031
  205POPC  H12X10442   6.199   5.348   4.028  0.2161 -1.0106  0.7043
  205POPC  H12Y10443   6.351   5.252   4.057 -1.7463 -2.5426  2.6585
  205POPC  C31310444   6.188   5.136   4.066 -0.6773  0.6072 -0.4972
  205POPC  H13X10445   6.235   5.049   4.014  0.7542  1.0983 -0.0901
  205POPC  H13Y10446   6.081   5.137   4.038 -1.1620 -0.4607  1.1746
  205POPC  C31410447   6.214   5.135   4.215 -0.6722  0.6359  0.5121
  205POPC  H14X10448   6.319   5.158   4.240  0.0423 -1.0498 -0.7751
  205POPC  H14Y10449   6.192   5.033   4.255 -0.7655  0.7837  0.8464
  205POPC  C31510450   6.124   5.239   4.299  0.2393  0.0636 -0.0136
  205POPC  H15X10451   6.023   5.237   4.254  0.4264  0.0716 -0.4378
  205POPC  H15Y10452   6.174   5.336   4.279  0.5646 -0.3365 -1.2148
  205POPC  C31610453   6.118   5.210   4.442 -0.9959 -0.1309 -0.2536
  205POPC  H16X10454   6.048   5.279   4.493 -0.4862 -0.1596  0.5111
  205POPC  H16Y10455   6.216   5.230   4.491 -1.7770  1.3238  0.7826
  205POPC  H16Z10456   6.096   5.104   4.465  2.5778 -0.6998  1.2446
  206POPC     N10457   2.958   1.633   2.672 -0.0926  0.2156  0.0246
  206POPC   C1210458   2.973   1.649   2.820  0.4490  0.8087 -0.1646
  206POPC  H12A10459   3.062   1.704   2.849  0.8544 -0.1864  0.5445
  206POPC  H12B10460   3.003   1.550   2.850  0.7180  0.6569 -0.9314
  206POPC   C1310461   2.853   1.530   2.632  0.6895 -0.4479 -0.1982
  206POPC  H13A10462   2.757   1.539   2.681  0.4482 -1.5945 -0.4166
  206POPC  H13B10463   2.852   1.521   2.524 -1.7428  2.7777 -0.5962
  206POPC  H13C10464   2.889   1.432   2.661 -0.4118 -1.2354 -1.3619
  206POPC   C1410465   2.922   1.755   2.604  0.5680 -0.1163  0.5403
  206POPC  H14A10466   3.004   1.825   2.611 -0.6061  1.2570  0.9248
  206POPC  H14B10467   2.909   1.750   2.496 -1.1700 -0.1955  0.7305
  206POPC  H14C10468   2.822   1.787   2.627  0.5504  0.6780 -0.5723
  206POPC   C1510469   3.085   1.582   2.607  1.2359 -0.0792  0.6426
  206POPC  H15A10470   3.148   1.515   2.664  2.2511  0.9182  0.7123
  206POPC  H15B10471   3.145   1.662   2.566  2.1600 -0.6276  0.8954
  206POPC  H15C10472   3.055   1.528   2.518  0.3622  1.4108  0.0069
  206POPC   C1110473   2.846   1.688   2.898 -0.1783  0.4448 -0.2999
  206POPC  H11A10474   2.799   1.778   2.852  0.1737  0.3701 -0.8149
  206POPC  H11B10475   2.874   1.715   3.002 -1.3350 -2.2824  0.8042
  206POPC     P10476   2.742   1.463   2.994 -0.4669  0.1001  0.0442
  206POPC   O1310477   2.876   1.401   2.964 -0.3258 -0.3556  0.1557
  206POPC   O1410478   2.626   1.387   2.971  0.4545  0.4078  0.1810
  206POPC   O1210479   2.741   1.588   2.900 -0.0579  0.1946  0.4386
  206POPC   O1110480   2.739   1.543   3.132 -0.4356  0.1576 -0.2904
  206POPC    C110481   2.626   1.608   3.184  0.1230 -0.0425 -0.2839
  206POPC    HA10482   2.597   1.543   3.269  0.7025  0.7916  0.5761
  206POPC    HB10483   2.546   1.624   3.110  1.3443 -1.1624 -1.9140
  206POPC    C210484   2.674   1.748   3.234 -0.2917  0.4312  0.2971
  206POPC    HS10485   2.734   1.786   3.149  0.5216  1.0939  1.1522
  206POPC   O2110486   2.757   1.724   3.344 -0.0898  0.4885  0.0716
  206POPC   C2110487   2.854   1.812   3.356  0.0705 -0.0597  0.0278
  206POPC   O2210488   2.875   1.913   3.286  0.3770  0.6087 -0.1595
  206POPC   C2210489   2.926   1.779   3.484  0.7298  0.2315 -0.0367
  206POPC   H2R10490   2.901   1.672   3.504 -2.9090  1.1020  0.8505
  206POPC   H2S10491   2.890   1.842   3.568 -0.4819  1.2787 -1.2974
  206POPC    C310492   2.563   1.854   3.273 -0.1937  0.3803 -0.1183
  206POPC    HX10493   2.510   1.870   3.176  0.1393 -1.5901 -0.6855
  206POPC    HY10494   2.616   1.948   3.297  1.2667 -0.0497 -1.4253
  206POPC   O3110495   2.464   1.809   3.364 -0.2806 -0.3267 -0.5768
  206POPC   C3110496   2.503   1.824   3.496 -0.1349 -0.3104  0.2358
  206POPC   O3210497   2.607   1.870   3.537  1.0081 -0.2044 -0.1561
  206POPC   C3210498   2.386   1.772   3.585  0.0622 -0.4649 -0.5251
  206POPC   H2X10499   2.411   1.671   3.623 -1.9447 -0.2749  1.5390
  206POPC   H2Y10500   2.300   1.741   3.521 -1.3843  0.2890  0.9812
  206POPC   C2310501   3.083   1.787   3.466 -0.3594 -0.2886 -0.7296
  206POPC   H3R10502   3.109   1.894   3.476  2.2034 -0.8296 -0.9024
  206POPC   H3S10503   3.123   1.758   3.366  2.4075  1.6899 -0.3188
  206POPC   C2410504   3.158   1.719   3.581  0.1357 -0.8236 -0.7721
  206POPC   H4R10505   3.131   1.611   3.583 -0.0844 -0.7655 -0.1998
  206POPC   H4S10506   3.125   1.763   3.678  0.0735 -0.4143 -0.9808
  206POPC   C2510507   3.307   1.733   3.561  0.5927 -0.6589  1.1222
  206POPC   H5R10508   3.341   1.833   3.528  2.0195 -1.8276 -1.3232
  206POPC   H5S10509   3.324   1.664   3.475 -2.0241 -0.1316  0.0673
  206POPC   C2610510   3.402   1.698   3.673  0.1485  0.6328  0.0394
  206POPC   H6R10511   3.506   1.711   3.638  0.1587 -1.4466 -0.8346
  206POPC   H6S10512   3.375   1.594   3.703 -1.6044  1.5291  1.9002
  206POPC   C2710513   3.389   1.786   3.801 -0.2930 -0.4007 -0.4726
  206POPC   H7R10514   3.286   1.776   3.840 -0.0279  0.4673  0.4896
  206POPC   H7S10515   3.419   1.890   3.776  4.8994 -1.3884  0.4826
  206POPC   C2810516   3.493   1.737   3.902 -0.0110  0.5729 -0.1155
  206POPC   H8R10517   3.582   1.687   3.856  0.1270  2.6521 -2.3300
  206POPC   H8S10518   3.437   1.665   3.964  2.5079 -1.6674 -0.2195
  206POPC   C2910519   3.536   1.848   3.995 -0.5038 -0.0635 -0.7935
  206POPC   H9110520   3.542   1.949   3.952 -3.4646 -0.4886 -2.4530
  206POPC  C21010521   3.586   1.831   4.120  0.0762  0.7342  0.0091
  206POPC  H10110522   3.620   1.915   4.183  1.1832  1.1999 -1.1631
  206POPC  C21110523   3.612   1.689   4.173  0.0174  0.0225 -0.6346
  206POPC  H11R10524   3.720   1.675   4.193  0.1011  3.4497  2.2549
  206POPC  H11S10525   3.579   1.608   4.105 -3.9041  0.6722  0.2590
  206POPC  C21210526   3.550   1.650   4.308  0.5651  0.4248  0.2418
  206POPC  H12R10527   3.570   1.542   4.318  0.9176  0.1334 -2.7718
  206POPC  H12S10528   3.443   1.679   4.316  1.4095  3.7544  1.2573
  206POPC  C21310529   3.604   1.728   4.420 -0.8013  0.8112  0.3806
  206POPC  H13R10530   3.600   1.838   4.403 -0.3945  0.6577 -0.7589
  206POPC  H13S10531   3.712   1.709   4.435 -0.8332  1.7557  2.0716
  206POPC  C21410532   3.539   1.690   4.557 -0.1903 -0.1407  0.1336
  206POPC  H14R10533   3.532   1.580   4.570  0.2077 -0.5095 -2.2041
  206POPC  H14S10534   3.436   1.732   4.553  0.6022  2.0519  1.1643
  206POPC  C21510535   3.619   1.751   4.668 -0.1647  0.0008  0.4233
  206POPC  H15R10536   3.721   1.708   4.664 -0.2406 -0.1312 -2.0080
  206POPC  H15S10537   3.570   1.719   4.762 -1.7443 -1.0428 -0.6976
  206POPC  C21610538   3.623   1.904   4.667  0.1694  0.3122 -0.1618
  206POPC  H16R10539   3.517   1.937   4.654  0.0660  0.0150 -0.0985
  206POPC  H16S10540   3.683   1.942   4.582  1.6605 -0.8896  0.3099
  206POPC  C21710541   3.694   1.969   4.792  1.2051 -0.1350 -0.4153
  206POPC  H17R10542   3.804   1.967   4.777  1.6484 -0.8813  2.4449
  206POPC  H17S10543   3.671   1.910   4.883  2.0143  0.5632  0.2602
  206POPC  C21810544   3.647   2.110   4.821 -0.1924  0.5756 -0.1205
  206POPC  H18R10545   3.700   2.140   4.914 -1.5216 -0.7282  1.1124
  206POPC  H18S10546   3.538   2.108   4.841  0.2341 -0.6627  2.4697
  206POPC  H18T10547   3.673   2.181   4.739 -0.4153 -1.0650 -1.6657
  206POPC   C3310548   2.342   1.876   3.693 -0.6703  0.2487 -0.1450
  206POPC   H3X10549   2.256   1.822   3.738  0.2964 -1.8974 -0.7019
  206POPC   H3Y10550   2.299   1.969   3.651 -1.7873  0.3335  1.1339
  206POPC   C3410551   2.447   1.893   3.808  0.1686 -0.4847  0.4804
  206POPC   H4X10552   2.533   1.951   3.766 -0.6165  0.6088  0.3496
  206POPC   H4Y10553   2.482   1.790   3.829 -0.3014 -1.1331 -1.7026
  206POPC   C3510554   2.394   1.956   3.936 -0.1790  0.3758 -0.3922
  206POPC   H5X10555   2.285   1.935   3.940 -0.1100 -0.5615 -2.5094
  206POPC   H5Y10556   2.417   2.065   3.937 -0.0856  0.3844  1.9609
  206POPC   C3610557   2.464   1.894   4.060 -0.2585  0.0364  0.1988
  206POPC   H6X10558   2.573   1.914   4.056 -0.0747 -1.0440 -0.9718
  206POPC   H6Y10559   2.461   1.783   4.060  0.6378 -0.0188 -1.2199
  206POPC   C3710560   2.426   1.957   4.191  0.5727 -0.0737 -0.1918
  206POPC   H7X10561   2.496   1.911   4.265 -1.4068 -1.2947  1.0192
  206POPC   H7Y10562   2.324   1.931   4.228  1.0152  0.0196  1.1639
  206POPC   C3810563   2.439   2.110   4.200 -0.4032  0.0534  0.1200
  206POPC   H8X10564   2.369   2.153   4.126 -1.5721 -3.4505 -1.0235
  206POPC   H8Y10565   2.540   2.143   4.167 -1.0732  0.4521 -1.6081
  206POPC   C3910566   2.421   2.151   4.343  0.5318 -0.7249  0.4590
  206POPC   H9X10567   2.477   2.082   4.409  2.5493 -0.9017 -1.3695
  206POPC   H9Y10568   2.314   2.139   4.372  0.4291  2.0422  1.6315
  206POPC  C31010569   2.450   2.301   4.366 -0.7161 -0.4034 -0.1654
  206POPC  H10X10570   2.386   2.375   4.313  1.0860  1.6876  0.3981
  206POPC  H10Y10571   2.552   2.322   4.327  0.7279 -4.8886  0.6654
  206POPC  C31110572   2.446   2.352   4.511 -0.8475  0.0745 -0.0491
  206POPC  H11X10573   2.534   2.320   4.570 -0.0168 -1.5209 -2.0044
  206POPC  H11Y10574   2.364   2.289   4.554 -0.3141  0.8405  2.1940
  206POPC  C31210575   2.421   2.504   4.517  0.0325  0.7322 -0.4938
  206POPC  H12X10576   2.333   2.523   4.452 -0.6546 -0.0604  0.1826
  206POPC  H12Y10577   2.514   2.551   4.478  1.2196 -1.0467  0.0627
  206POPC  C31310578   2.374   2.565   4.647 -0.9632 -0.7393  0.0060
  206POPC  H13X10579   2.448   2.527   4.722  0.3562 -1.5087 -1.6132
  206POPC  H13Y10580   2.270   2.539   4.675 -1.1935  0.1744  0.0284
  206POPC  C31410581   2.382   2.717   4.639  0.3088 -0.0615 -0.2610
  206POPC  H14X10582   2.353   2.737   4.533  0.7354 -0.1404 -0.3944
  206POPC  H14Y10583   2.489   2.745   4.650  0.9973 -2.7979  0.6736
  206POPC  C31510584   2.280   2.792   4.739  0.2483  0.5335 -0.4333
  206POPC  H15X10585   2.215   2.707   4.766  0.6376  0.2853 -0.2764
  206POPC  H15Y10586   2.203   2.862   4.699  1.4640  0.8560 -2.3897
  206POPC  C31610587   2.345   2.834   4.875  0.5754  0.6224 -0.5439
  206POPC  H16X10588   2.267   2.870   4.945 -0.6087  0.8044 -1.9080
  206POPC  H16Y10589   2.424   2.911   4.856  1.4481 -0.4091 -1.2089
  206POPC  H16Z10590   2.397   2.750   4.926 -0.8031  1.6953  2.9414
  207POPC     N10591   5.212   6.335   2.536  0.2117 -1.3222  0.4819
  207POPC   C1210592   5.259   6.239   2.643  0.6186  0.0679  0.2254
  207POPC  H12A10593   5.173   6.221   2.707  0.2097 -0.3253 -0.4324
  207POPC  H12B10594   5.327   6.287   2.712 -0.1953  1.0823  0.3543
  207POPC   C1310595   5.323   6.371   2.438  0.2906  0.4089 -0.4467
  207POPC  H13A10596   5.413   6.393   2.493 -1.7955 -0.6554  3.8443
  207POPC  H13B10597   5.340   6.281   2.381 -0.8371 -0.1203  0.0333
  207POPC  H13C10598   5.311   6.454   2.370  1.9492  2.2799  1.4160
  207POPC   C1410599   5.096   6.283   2.462  0.4302 -0.1150 -0.5612
  207POPC  H14A10600   5.011   6.270   2.528 -0.3697  1.0109 -1.3277
  207POPC  H14B10601   5.065   6.352   2.385 -0.1026  0.6299  0.2801
  207POPC  H14C10602   5.125   6.192   2.414  0.4407 -0.7471  0.5989
  207POPC   C1510603   5.177   0.023   2.605 -0.1894  0.1596 -0.5576
  207POPC  H15A10604   5.142   0.088   2.527  0.9374  0.1166 -1.1221
  207POPC  H15B10605   5.263   0.067   2.653  0.4563 -0.0466 -1.4879
  207POPC  H15C10606   5.110   0.002   2.687  1.7338 -0.4804  0.9298
  207POPC   C1110607   5.328   6.102   2.601  0.0043  0.4353  0.6821
  207POPC  H11A10608   5.268   6.051   2.523  1.1965 -1.6070  1.0285
  207POPC  H11B10609   5.330   6.047   2.697  0.9623  0.2315  0.5595
  207POPC     P10610   5.578   6.195   2.629  0.1651 -0.1561 -0.3448
  207POPC   O1310611   5.587   6.342   2.606  0.4897 -0.0748  0.0759
  207POPC   O1410612   5.701   6.122   2.611  0.0839  0.2542  0.5462
  207POPC   O1210613   5.458   6.131   2.538  0.0569  0.1308  0.4972
  207POPC   O1110614   5.530   6.176   2.782 -0.2990 -0.1128  0.2450
  207POPC    C110615   5.540   6.059   2.863  0.4369 -0.6138  0.2923
  207POPC    HA10616   5.520   5.965   2.808 -2.0451  0.7809 -1.4062
  207POPC    HB10617   5.454   6.063   2.933 -0.0341 -1.1944 -0.2410
  207POPC    C210618   5.675   6.066   2.937  0.0549 -0.9388 -0.2497
  207POPC    HS10619   5.758   6.087   2.866  1.7725  3.3579  2.6430
  207POPC   O2110620   5.691   5.945   3.009 -0.4700 -0.2129  0.3935
  207POPC   C2110621   5.752   5.838   2.948 -0.5960  0.6020 -0.7370
  207POPC   O2210622   5.799   5.846   2.835  0.1459 -0.6298 -0.3267
  207POPC   C2210623   5.768   5.718   3.040  0.4821 -0.4759 -0.2876
  207POPC   H2R10624   5.877   5.701   3.029  0.4853 -0.4500 -0.2937
  207POPC   H2S10625   5.703   5.641   2.992 -3.1322  1.7093  0.7388
  207POPC    C310626   5.694   6.190   3.034 -0.6195  0.3573 -0.1284
  207POPC    HX10627   5.682   6.285   2.979 -0.1966  0.1751 -0.5416
  207POPC    HY10628   5.794   6.191   3.083 -1.5337 -1.2783  1.9699
  207POPC   O3110629   5.588   6.191   3.137 -0.3914  0.1305  0.5755
  207POPC   C3110630   5.633   6.198   3.265  0.0301 -0.2720 -0.5525
  207POPC   O3210631   5.752   6.214   3.296  0.1198 -0.2965  0.1026
  207POPC   C3210632   5.515   6.199   3.365  0.1389 -0.7404  0.2020
  207POPC   H2X10633   5.424   6.166   3.310  0.1163  0.0479 -0.2378
  207POPC   H2Y10634   5.490   6.305   3.383 -3.4948 -1.9215  3.6564
  207POPC   C2310635   5.732   5.725   3.185  0.4516  0.2555  0.3737
  207POPC   H3R10636   5.729   5.628   3.241  0.5757  1.1983  2.0804
  207POPC   H3S10637   5.632   5.769   3.199 -0.3358 -1.8910  2.2088
  207POPC   C2410638   5.836   5.803   3.279 -0.2662  0.3274 -0.0507
  207POPC   H4R10639   5.838   5.913   3.260  0.6403  1.0481  3.3972
  207POPC   H4S10640   5.937   5.764   3.260 -0.6848 -1.4004  1.0721
  207POPC   C2510641   5.795   5.790   3.427  1.0634  1.1116 -0.4151
  207POPC   H5R10642   5.812   5.684   3.456 -2.2383  0.6851  0.3740
  207POPC   H5S10643   5.687   5.816   3.429  1.0206  0.9713  1.9658
  207POPC   C2610644   5.855   5.892   3.523  0.0523  0.5576  0.5951
  207POPC   H6R10645   5.856   5.988   3.467  0.6269  0.5657  0.6116
  207POPC   H6S10646   5.959   5.855   3.534  0.4766  1.6716  0.3862
  207POPC   C2710647   5.772   5.893   3.652 -0.1689  0.1150 -0.0778
  207POPC   H7R10648   5.780   5.809   3.724 -1.2454  1.6453  1.9320
  207POPC   H7S10649   5.666   5.912   3.626 -0.9828 -1.2878  2.0025
  207POPC   C2810650   5.802   6.022   3.734 -0.0246  0.3059  0.0725
  207POPC   H8R10651   5.729   6.027   3.817  0.1556 -1.0000  0.3328
  207POPC   H8S10652   5.789   6.120   3.684 -0.1247  1.2396  1.8358
  207POPC   C2910653   5.938   6.016   3.797  0.1992 -0.6119  0.0065
  207POPC   H9110654   6.027   6.052   3.743 -0.1773  0.2914 -0.0256
  207POPC  C21010655   5.958   5.977   3.921 -0.5723 -0.1820  0.2680
  207POPC  H10110656   6.063   5.988   3.953 -0.4490  2.0368 -0.7220
  207POPC  C21110657   5.854   5.924   4.016 -0.6222  0.2498 -1.0367
  207POPC  H11R10658   5.891   5.823   4.044 -0.6990  0.4659 -0.1221
  207POPC  H11S10659   5.755   5.902   3.972 -0.9739 -1.7863  0.6427
  207POPC  C21210660   5.841   6.007   4.147 -0.3490 -0.2446 -0.0218
  207POPC  H12R10661   5.849   6.117   4.133  1.1112 -0.1785  1.0122
  207POPC  H12S10662   5.934   5.984   4.203  0.2503 -0.6076 -1.1384
  207POPC  C21310663   5.711   5.960   4.220 -0.0395 -1.2009  0.3302
  207POPC  H13R10664   5.741   5.853   4.229 -0.2672 -1.4667 -1.7567
  207POPC  H13S10665   5.620   5.967   4.156  0.6831  1.4941 -0.5395
  207POPC  C21410666   5.678   6.013   4.353 -0.0956  0.1211  0.0987
  207POPC  H14R10667   5.609   5.934   4.391  0.5041 -0.5805 -0.2500
  207POPC  H14S10668   5.637   6.115   4.340 -0.1420  0.2302  1.0154
  207POPC  C21510669   5.798   6.019   4.450 -0.2664  0.3218  0.2965
  207POPC  H15R10670   5.882   6.065   4.394 -0.6796 -0.5177 -1.0707
  207POPC  H15S10671   5.832   5.922   4.492  0.0424  0.0751 -0.4895
  207POPC  C21610672   5.770   6.113   4.565  0.0273  0.8796 -0.1275
  207POPC  H16R10673   5.688   6.069   4.625  0.3122 -0.4147 -0.6563
  207POPC  H16S10674   5.738   6.206   4.513 -1.9419 -0.3753 -1.2701
  207POPC  C21710675   5.872   6.128   4.672  0.6738 -0.1208 -0.3366
  207POPC  H17R10676   5.863   6.051   4.752 -0.5750  0.6939  0.3376
  207POPC  H17S10677   5.851   6.224   4.724  1.9597 -0.4248  0.8246
  207POPC  C21810678   6.016   6.135   4.628  0.7211  0.5715 -0.1552
  207POPC  H18R10679   6.048   6.035   4.591  1.7721  0.4925  0.8893
  207POPC  H18S10680   6.091   6.154   4.708  2.2776  1.7570 -1.7992
  207POPC  H18T10681   6.042   6.214   4.554  2.3744  0.8064  0.6317
  207POPC   C3310682   5.550   6.138   3.498  0.6530  0.4747 -1.1691
  207POPC   H3X10683   5.605   6.203   3.569 -0.5721  1.2972 -0.9358
  207POPC   H3Y10684   5.605   6.044   3.473  0.4075 -0.0813  0.2911
  207POPC   C3410685   5.418   6.097   3.572  0.3987  0.1358 -0.0680
  207POPC   H4X10686   5.360   6.049   3.490  1.4941  2.8126 -2.5695
  207POPC   H4Y10687   5.342   6.177   3.588 -0.5205 -0.1958 -2.3624
  207POPC   C3510688   5.425   6.017   3.704  0.2335 -0.5741  0.0565
  207POPC   H5X10689   5.494   5.930   3.701  0.8014 -0.1494  0.5214
  207POPC   H5Y10690   5.321   5.981   3.711 -0.7051  2.1808  2.2368
  207POPC   C3610691   5.456   6.105   3.829 -0.4014  0.3957 -0.1574
  207POPC   H6X10692   5.518   6.190   3.792 -0.2155 -0.7311 -2.6496
  207POPC   H6Y10693   5.518   6.047   3.901 -0.9677  1.1833  1.0061
  207POPC   C3710694   5.328   6.153   3.903  0.7465 -0.2877  0.2883
  207POPC   H7X10695   5.269   6.211   3.829  1.3622 -2.8366 -2.4305
  207POPC   H7Y10696   5.358   6.218   3.988 -0.4349 -1.3992  1.5999
  207POPC   C3810697   5.256   6.036   3.965 -0.0991  0.2843 -0.4021
  207POPC   H8X10698   5.319   5.991   4.044 -1.5795 -1.4328 -0.1496
  207POPC   H8Y10699   5.236   5.955   3.892  1.5830 -0.8800  0.3501
  207POPC   C3910700   5.121   6.071   4.027 -0.2199  0.4491 -0.3938
  207POPC   H9X10701   5.075   5.973   4.053  2.6648 -1.2817 -1.4121
  207POPC   H9Y10702   5.056   6.126   3.955  0.0631  1.3006  0.0034
  207POPC  C31010703   5.139   6.151   4.154  0.1428 -0.5669 -0.4314
  207POPC  H10X10704   5.179   6.251   4.127  1.1096 -0.8713 -0.1726
  207POPC  H10Y10705   5.214   6.105   4.221  0.9463  1.6925  0.3031
  207POPC  C31110706   5.019   6.165   4.248 -0.0860  0.8191  0.5223
  207POPC  H11X10707   5.058   6.223   4.334  1.4290  2.2707 -1.0607
  207POPC  H11Y10708   4.987   6.068   4.291 -0.0842  0.3054 -0.5751
  207POPC  C31210709   4.899   6.235   4.188  0.2944  0.1137  0.9617
  207POPC  H12X10710   4.901   6.212   4.079  2.1728  1.5963  0.6310
  207POPC  H12Y10711   4.916   6.343   4.166 -1.3246  0.2458  0.1980
  207POPC  C31310712   4.758   6.222   4.254  0.1603 -0.3432 -0.2259
  207POPC  H13X10713   4.717   6.119   4.262 -0.8383  0.1391  1.3276
  207POPC  H13Y10714   4.689   6.285   4.195 -0.2389  0.6180  1.2281
  207POPC  C31410715   4.767   6.269   4.404  1.0853 -0.5908 -0.4387
  207POPC  H14X10716   4.757   6.380   4.406  0.1592 -0.5329 -3.2044
  207POPC  H14Y10717   4.861   6.235   4.452 -0.7689 -1.1604  3.1647
  207POPC  C31510718   4.646   6.210   4.486 -0.2699  0.1211  0.0358
  207POPC  H15X10719   4.654   6.101   4.470  0.2611  0.1637  0.0198
  207POPC  H15Y10720   4.550   6.237   4.436  0.8048 -1.7403 -3.3182
  207POPC  C31610721   4.655   6.225   4.639 -0.5161 -0.2843  0.5925
  207POPC  H16X10722   4.663   6.333   4.665  2.2140  0.4079 -2.4654
  207POPC  H16Y10723   4.753   6.184   4.670  1.5233  3.7364  0.1330
  207POPC  H16Z10724   4.572   6.173   4.691 -3.3792  2.9905 -0.2633
  208POPC     N10725   5.740   0.167   2.300  1.0343  0.4384  0.4372
  208POPC   C1210726   5.661   0.160   2.427 -0.2507 -0.4305 -0.3800
  208POPC  H12A10727   5.714   0.102   2.500 -0.5514  0.5780  0.6729
  208POPC  H12B10728   5.559   0.127   2.410 -0.1853 -0.3600 -0.9361
  208POPC   C1310729   5.769   0.025   2.254  0.8288  0.1310 -0.0364
  208POPC  H13A10730   5.829   0.036   2.165  0.3710 -0.1933 -0.3884
  208POPC  H13B10731   5.820  -0.029   2.333  0.3754  1.2180  1.0390
  208POPC  H13C10732   5.674  -0.022   2.236  2.0886 -1.5121 -3.2349
  208POPC   C1410733   5.660   0.228   2.187 -0.1974  0.7538 -0.1525
  208POPC  H14A10734   5.706   0.246   2.091 -1.1835  0.7189 -0.6455
  208POPC  H14B10735   5.568   0.174   2.171  1.7983 -2.5219 -1.7303
  208POPC  H14C10736   5.636   0.325   2.228 -1.3002 -0.1091  1.3200
  208POPC   C1510737   5.870   0.229   2.312  0.5795 -0.0277  0.8980
  208POPC  H15A10738   5.924   0.213   2.220 -2.2598 -0.4080 -0.8277
  208POPC  H15B10739   5.934   0.203   2.395  3.2718 -0.2452 -1.1149
  208POPC  H15C10740   5.857   0.336   2.322 -0.6832 -0.0984  0.2004
  208POPC   C1110741   5.623   0.293   2.486  0.4148 -1.1247  0.8115
  208POPC  H11A10742   5.701   0.370   2.467  0.3438 -1.3396 -0.4036
  208POPC  H11B10743   5.600   0.303   2.594  0.7954 -1.7822  0.9596
  208POPC     P10744   5.368   0.348   2.449 -0.1299  0.2356  0.5207
  208POPC   O1310745   5.300   0.242   2.377  0.2933 -0.5627  0.1824
  208POPC   O1410746   5.302   0.478   2.432  0.5692 -0.1930  0.2268
  208POPC   O1210747   5.521   0.355   2.401 -0.1133  0.2167 -0.3820
  208POPC   O1110748   5.364   0.309   2.601  0.1828  0.4301 -0.0109
  208POPC    C110749   5.276   0.373   2.693  0.0632  0.0303  0.3128
  208POPC    HA10750   5.278   0.309   2.784  1.3052  2.0054  1.7641
  208POPC    HB10751   5.173   0.387   2.653  1.2366  0.4743 -2.7669
  208POPC    C210752   5.327   0.506   2.744 -1.0249  0.1925  0.1649
  208POPC    HS10753   5.355   0.569   2.657 -0.2989 -1.4923 -0.8867
  208POPC   O2110754   5.451   0.472   2.812  0.3734  0.3136  0.0035
  208POPC   C2110755   5.533   0.571   2.843 -0.2988 -0.4809  0.8744
  208POPC   O2210756   5.533   0.686   2.791 -0.1737  0.1211 -0.3509
  208POPC   C2210757   5.646   0.509   2.924 -0.5273 -0.6374 -0.3440
  208POPC   H2R10758   5.718   0.460   2.855 -2.7311 -1.1618 -2.4028
  208POPC   H2S10759   5.607   0.424   2.985  1.7631 -1.8100 -0.4227
  208POPC    C310760   5.211   0.567   2.833 -0.1245  0.5512  0.6173
  208POPC    HX10761   5.122   0.589   2.771 -0.9966  1.5231  2.1354
  208POPC    HY10762   5.253   0.669   2.851  2.0526  0.0278 -1.1141
  208POPC   O3110763   5.164   0.491   2.948 -0.1008  0.8989 -0.2354
  208POPC   C3110764   5.247   0.507   3.051 -0.7142  0.2218  0.0342
  208POPC   O3210765   5.334   0.591   3.055 -0.3360  0.7327  0.2332
  208POPC   C3210766   5.219   0.402   3.159 -0.4273 -0.0343 -0.3198
  208POPC   H2X10767   5.298   0.327   3.138 -0.2022 -0.1799  0.9679
  208POPC   H2Y10768   5.118   0.357   3.151 -0.3949  0.0449 -1.2769
  208POPC   C2310769   5.738   0.616   2.999  0.4965  0.0887 -0.0018
  208POPC   H3R10770   5.774   0.706   2.944 -1.6463  1.7295  1.1445
  208POPC   H3S10771   5.826   0.559   3.035  0.5510  0.9041  1.2398
  208POPC   C2410772   5.677   0.651   3.132 -0.2302  0.2355  0.3896
  208POPC   H4R10773   5.649   0.560   3.189 -1.3622  0.0809 -0.3833
  208POPC   H4S10774   5.579   0.694   3.103 -0.3486 -1.0320 -1.2565
  208POPC   C2510775   5.757   0.751   3.218 -0.3862 -0.2739 -0.2839
  208POPC   H5R10776   5.759   0.850   3.168 -1.2563  0.4403  1.0289
  208POPC   H5S10777   5.862   0.715   3.223 -0.8437 -1.5119  1.9158
  208POPC   C2610778   5.694   0.763   3.352 -0.0184 -0.4569 -0.5434
  208POPC   H6R10779   5.729   0.676   3.411  0.5354  2.1612  3.3413
  208POPC   H6S10780   5.584   0.754   3.338 -0.0572  1.5375 -1.9141
  208POPC   C2710781   5.748   0.875   3.434 -0.0877 -0.2581  0.6727
  208POPC   H7R10782   5.703   0.966   3.388  1.3158  0.1522  0.0709
  208POPC   H7S10783   5.858   0.881   3.436 -0.1550  1.1262  2.1201
  208POPC   C2810784   5.706   0.881   3.582 -0.3416  0.3739 -0.5447
  208POPC   H8R10785   5.740   0.785   3.627 -1.1431  0.7605  0.9620
  208POPC   H8S10786   5.595   0.869   3.584 -0.3465  0.3315  1.6576
  208POPC   C2910787   5.740   0.997   3.667  0.5633 -0.4920 -0.0235
  208POPC   H9110788   5.675   1.086   3.662  1.2764 -0.0114 -0.9046
  208POPC  C21010789   5.830   1.007   3.764  0.0446 -0.0032 -0.2355
  208POPC  H10110790   5.832   1.093   3.834 -0.9542 -0.4989  0.4214
  208POPC  C21110791   5.941   0.911   3.802  1.0196  0.3612  0.2845
  208POPC  H11R10792   6.035   0.957   3.765 -0.2052  0.9486 -2.3362
  208POPC  H11S10793   5.924   0.812   3.754 -2.3701  0.6309  0.6546
  208POPC  C21210794   5.951   0.883   3.956  1.1371  0.2341  0.3005
  208POPC  H12R10795   5.853   0.851   3.999  1.2576  1.2315  1.3607
  208POPC  H12S10796   5.981   0.968   4.020 -1.9979 -0.6631  3.3010
  208POPC  C21310797   6.042   0.774   3.990 -0.9007  0.0529 -0.0093
  208POPC  H13R10798   6.142   0.794   3.945 -0.6561 -0.3964  0.3213
  208POPC  H13S10799   6.006   0.681   3.941 -0.0168 -0.6890  0.7062
  208POPC  C21410800   6.048   0.751   4.141 -0.1651 -0.2206  0.1723
  208POPC  H14R10801   5.955   0.714   4.190  1.5088 -2.5220  1.8770
  208POPC  H14S10802   6.088   0.836   4.199 -1.1595  0.5535 -0.2513
  208POPC  C21510803   6.155   0.652   4.181 -0.2831  0.5748  0.7081
  208POPC  H15R10804   6.254   0.699   4.164  0.8823  0.0800  4.8460
  208POPC  H15S10805   6.152   0.559   4.121  1.1003 -0.6558  2.4318
  208POPC  C21610806   6.160   0.612   4.327 -0.2304  0.5304 -0.8523
  208POPC  H16R10807   6.249   0.546   4.337  1.5031  2.3901 -2.9041
  208POPC  H16S10808   6.071   0.548   4.349  0.9210 -0.0765  2.7889
  208POPC  C21710809   6.167   0.726   4.435  0.1506  0.1308  0.7197
  208POPC  H17R10810   6.067   0.772   4.446  0.1563 -0.0796  1.7069
  208POPC  H17S10811   6.240   0.801   4.397 -0.2761 -0.5619 -1.6109
  208POPC  C21810812   6.204   0.678   4.572  0.7508  1.0756 -0.1985
  208POPC  H18R10813   6.275   0.593   4.570  1.7346  1.7665  1.9236
  208POPC  H18S10814   6.108   0.637   4.609  0.1210  1.0401 -1.8015
  208POPC  H18T10815   6.235   0.761   4.639  0.3704  1.3396 -0.3482
  208POPC   C3310816   5.221   0.456   3.304 -0.2728 -1.0375  0.1590
  208POPC   H3X10817   5.166   0.383   3.367 -0.2450  0.1676  1.6375
  208POPC   H3Y10818   5.148   0.540   3.306 -1.4210 -1.9312 -1.6904
  208POPC   C3410819   5.354   0.495   3.356  0.2788  0.2430  0.0817
  208POPC   H4X10820   5.406   0.563   3.285  3.5623 -0.6432  1.4627
  208POPC   H4Y10821   5.423   0.408   3.359  0.2239  0.2020  0.1664
  208POPC   C3510822   5.357   0.554   3.499 -0.2322  0.5363  0.7255
  208POPC   H5X10823   5.354   0.665   3.500  1.2447  0.5995  1.1500
  208POPC   H5Y10824   5.458   0.534   3.542 -0.7360  1.2140  2.2715
  208POPC   C3610825   5.253   0.507   3.597  0.3270 -0.3545 -0.5578
  208POPC   H6X10826   5.286   0.403   3.615  0.0532 -0.4639 -0.6736
  208POPC   H6Y10827   5.155   0.513   3.544  0.0827 -0.0791 -0.0817
  208POPC   C3710828   5.256   0.588   3.728 -0.6622  0.2592 -0.2281
  208POPC   H7X10829   5.201   0.683   3.711 -0.3442  0.5602  0.4135
  208POPC   H7Y10830   5.362   0.607   3.757  0.0158 -2.4540 -0.6581
  208POPC   C3810831   5.177   0.522   3.838  0.4229 -0.6571 -0.1481
  208POPC   H8X10832   5.188   0.412   3.840 -3.7149 -1.2424 -0.8093
  208POPC   H8Y10833   5.070   0.546   3.819  1.2757  3.9048 -0.3844
  208POPC   C3910834   5.218   0.578   3.975  0.3809  0.3406  0.3405
  208POPC   H9X10835   5.129   0.637   4.009  0.4086  0.3985  0.3113
  208POPC   H9Y10836   5.300   0.652   3.966 -1.4062  2.3433 -0.4994
  208POPC  C31010837   5.247   0.483   4.090 -0.2176 -0.4547 -0.0921
  208POPC  H10X10838   5.329   0.410   4.077 -0.6075 -0.8657 -0.2868
  208POPC  H10Y10839   5.154   0.425   4.112 -1.3156  1.5900  1.0118
  208POPC  C31110840   5.308   0.557   4.213 -0.3121 -0.2020 -0.1280
  208POPC  H11X10841   5.234   0.621   4.264  0.5341 -0.0928  1.0015
  208POPC  H11Y10842   5.393   0.623   4.184 -0.4093 -0.7287 -1.7233
  208POPC  C31210843   5.370   0.457   4.314  0.1486  0.3241  0.0902
  208POPC  H12X10844   5.391   0.511   4.409  0.1592 -0.7491  0.7147
  208POPC  H12Y10845   5.469   0.430   4.274  0.9354  3.2859 -0.1544
  208POPC  C31310846   5.287   0.335   4.364 -0.2495 -0.3507  1.1110
  208POPC  H13X10847   5.265   0.261   4.284  3.1123  0.7651 -1.1138
  208POPC  H13Y10848   5.193   0.388   4.389 -0.1704  0.6214 -0.4978
  208POPC  C31410849   5.360   0.254   4.473  0.6665 -0.4128 -0.2506
  208POPC  H14X10850   5.372   0.325   4.558 -0.5557  0.0572 -0.4520
  208POPC  H14Y10851   5.453   0.208   4.435  0.5904 -0.5211 -0.3066
  208POPC  C31510852   5.274   0.132   4.514 -0.4498 -0.7864  0.0139
  208POPC  H15X10853   5.167   0.162   4.517 -0.0680  0.5773  0.7076
  208POPC  H15Y10854   5.301   0.112   4.620 -3.6425 -0.3228  1.0342
  208POPC  C31610855   5.309   6.458   4.420 -0.2316  0.0466  0.5473
  208POPC  H16X10856   5.414   6.424   4.406 -0.1067 -0.3028  2.1211
  208POPC  H16Y10857   5.261   6.465   4.320  2.4646  0.2780 -0.8133
  208POPC  H16Z10858   5.271   6.368   4.474  2.2671  0.1264  2.6259
  209POPC     N10859   6.108   0.860   2.054 -0.1891 -0.1911  0.9346
  209POPC   C1210860   6.211   0.846   2.171  0.5827 -0.3784 -0.4849
  209POPC  H12A10861   6.233   0.742   2.187  0.7289 -0.7230 -2.5643
  209POPC  H12B10862   6.162   0.880   2.261  0.8286 -1.6377  0.1483
  209POPC   C1310863   6.079   1.006   2.017  0.2372 -0.3334 -0.1310
  209POPC  H13A10864   6.000   1.006   1.943  0.6596 -3.5663 -0.7307
  209POPC  H13B10865   6.062   1.070   2.102 -0.3408 -3.2558  2.0922
  209POPC  H13C10866   6.159   1.047   1.956  0.2548 -0.1020  0.0463
  209POPC   C1410867   6.162   0.782   1.945 -0.4069 -0.5543  0.4488
  209POPC  H14A10868   6.261   0.826   1.934 -0.3125 -0.5755  1.1206
  209POPC  H14B10869   6.169   0.681   1.982  0.7218 -0.8866 -0.6032
  209POPC  H14C10870   6.105   0.782   1.854 -1.1938  2.9663  0.8021
  209POPC   C1510871   5.971   0.807   2.092  0.1580  0.0447  0.4514
  209POPC  H15A10872   5.913   0.821   2.002  3.3003 -0.6651 -1.8191
  209POPC  H15B10873   5.935   0.878   2.165  0.3871  0.7529 -0.1154
  209POPC  H15C10874   5.962   0.703   2.120 -2.5878  0.2882  0.7520
  209POPC   C1110875   6.346   0.916   2.173 -0.5310 -0.7823  0.0594
  209POPC  H11A10876   6.383   0.901   2.277 -2.4421 -1.6874  0.6732
  209POPC  H11B10877   6.344   1.024   2.150  2.9481 -0.7647 -0.6816
  209POPC     P10878   0.063   0.732   2.095  0.0847 -0.1928  0.0161
  209POPC   O1310879   0.199   0.775   2.134  0.0940  0.3072  0.5717
  209POPC   O1410880   0.045   0.643   1.976 -0.1414  1.1426 -0.4061
  209POPC   O1210881   6.428   0.868   2.071  0.2580  0.5372  0.7050
  209POPC   O1110882   6.432   0.666   2.216  0.1480  0.3710  0.2058
  209POPC    C110883   0.021   0.538   2.277 -0.1203  0.0619  0.1182
  209POPC    HA10884   0.131   0.524   2.289  0.2820  0.2110 -2.7383
  209POPC    HB10885   0.004   0.454   2.206  3.4423 -1.3560  0.7069
  209POPC    C210886   6.383   0.522   2.402 -0.0495  0.4386  0.3893
  209POPC    HS10887   6.277   0.550   2.387 -1.2418 -3.0141  1.3946
  209POPC   O2110888   6.433   0.610   2.501 -0.2889  0.2418  0.1483
  209POPC   C2110889   6.358   0.668   2.591 -0.0370 -0.5074  0.9899
  209POPC   O2210890   6.241   0.686   2.579 -0.0267 -0.2459  0.0352
  209POPC   C2210891  -0.005   0.724   2.701  0.5306  0.4834 -0.3044
  209POPC   H2R10892  -0.058   0.814   2.741  2.1225  1.4098 -0.1761
  209POPC   H2S10893   0.097   0.747   2.663  0.2505  1.7110 -0.3643
  209POPC    C310894   6.388   0.384   2.464  0.0208  0.2837  0.4565
  209POPC    HX10895   6.494   0.366   2.492 -0.2815 -1.7399  0.4173
  209POPC    HY10896   6.356   0.308   2.390  0.6374  1.7995 -1.4412
  209POPC   O3110897   6.316   0.386   2.594  0.2753  0.3371  0.2881
  209POPC   C3110898   6.184   0.358   2.577 -0.2715 -0.5079 -0.4729
  209POPC   O3210899   6.123   0.331   2.475 -0.3735 -0.9462  0.1894
  209POPC   C3210900   6.125   0.382   2.712  0.4326 -1.1101 -0.0201
  209POPC   H2X10901   6.157   0.485   2.741  1.2199 -1.7044  1.3205
  209POPC   H2Y10902   6.173   0.318   2.789  1.5798 -1.9631 -1.3864
  209POPC   C2310903   0.002   0.628   2.821  0.3263 -0.6741 -0.4280
  209POPC   H3R10904   0.097   0.648   2.873 -0.4824 -1.0158  1.2483
  209POPC   H3S10905   0.003   0.523   2.784 -2.3164  0.2734 -3.8437
  209POPC   C2410906   6.334   0.657   2.921  0.0460 -0.2346 -0.3696
  209POPC   H4R10907   6.236   0.654   2.869 -0.2814  0.1000  0.2093
  209POPC   H4S10908   6.349   0.759   2.964 -2.7480  0.2590 -0.3667
  209POPC   C2510909   6.334   0.553   3.036  0.6164  0.0988  0.0859
  209POPC   H5R10910   6.431   0.559   3.089  2.3238 -1.8993 -2.5458
  209POPC   H5S10911   6.323   0.449   2.998  1.6450 -0.7526  1.9818
  209POPC   C2610912   6.213   0.572   3.118  0.3683 -0.1868 -0.4416
  209POPC   H6R10913   6.121   0.579   3.055  1.9758 -2.7153 -3.3552
  209POPC   H6S10914   6.233   0.660   3.182  3.2479  0.7291 -2.4315
  209POPC   C2710915   6.198   0.445   3.210 -1.0422 -0.6649 -0.7460
  209POPC   H7R10916   6.289   0.438   3.273 -1.8227 -0.6796  0.4056
  209POPC   H7S10917   6.199   0.365   3.133  0.0579 -0.9153 -0.4925
  209POPC   C2810918   6.081   0.450   3.306 -0.3832  0.1730 -1.0488
  209POPC   H8R10919   5.989   0.441   3.245 -0.2510  1.3624 -1.4538
  209POPC   H8S10920   6.072   0.547   3.359 -2.7760 -0.9243  0.7384
  209POPC   C2910921   6.081   0.340   3.412  0.1756  0.6959  0.6211
  209POPC   H9110922   6.066   0.236   3.378  0.6466  0.6280  0.6120
  209POPC  C21010923   6.080   0.356   3.542  0.1126  0.1666 -0.4196
  209POPC  H10110924   6.102   0.264   3.599 -1.6000  0.1096  0.2001
  209POPC  C21110925   6.109   0.474   3.623 -0.2942 -0.8439 -0.4599
  209POPC  H11R10926   6.053   0.479   3.719  1.4665 -0.4690  0.5844
  209POPC  H11S10927   6.084   0.569   3.570 -1.4656 -0.2588  1.0566
  209POPC  C21210928   6.255   0.481   3.683 -0.2854  0.1389 -0.2149
  209POPC  H12R10929   6.257   0.574   3.744 -1.6304 -0.0926  0.2144
  209POPC  H12S10930   6.329   0.476   3.601  0.4753 -0.8003  0.5121
  209POPC  C21310931   6.281   0.363   3.785 -0.1422  0.0092 -0.2704
  209POPC  H13R10932   6.288   0.271   3.724 -0.5073 -0.4911  0.4268
  209POPC  H13S10933   6.193   0.362   3.853 -0.0039  1.8554  0.0074
  209POPC  C21410934   6.414   0.376   3.850 -0.2686 -0.0277 -0.1925
  209POPC  H14R10935   6.419   0.469   3.911 -0.7074  1.8403 -2.8264
  209POPC  H14S10936   6.488   0.384   3.767 -0.0857  1.0814  0.0579
  209POPC  C21510937   0.004   0.256   3.942 -0.3096  0.3934 -0.9934
  209POPC  H15R10938   0.115   0.261   3.952 -0.4655 -0.1311  1.5022
  209POPC  H15S10939  -0.012   0.153   3.902  1.5423 -0.5030  0.4452
  209POPC  C21610940   6.381   0.261   4.077 -0.5074 -0.2266 -0.3283
  209POPC  H16R10941   6.426   0.179   4.136 -1.2790  0.9866  2.1111
  209POPC  H16S10942   6.272   0.243   4.064 -0.2481 -1.4472 -0.8910
  209POPC  C21710943   6.420   0.386   4.164  0.0422 -0.3408 -0.1375
  209POPC  H17R10944   6.354   0.369   4.252  1.8541 -2.9234  0.8510
  209POPC  H17S10945   6.391   0.478   4.110  1.1103  1.8537  2.7611
  209POPC  C21810946   0.117   0.406   4.205  0.1125 -0.5048  0.0466
  209POPC  H18R10947   0.190   0.407   4.122  2.9623 -1.8319  2.3441
  209POPC  H18S10948   0.140   0.324   4.276 -1.1069 -0.3959  0.5884
  209POPC  H18T10949   0.139   0.501   4.257 -0.3157 -1.5064  2.1511
  209POPC   C3310950   5.972   0.361   2.706  1.2376 -0.3150  0.4278
  209POPC   H3X10951   5.916   0.413   2.626 -0.4677 -3.1777 -0.3679
  209POPC   H3Y10952   5.936   0.398   2.805  0.7125  0.0481  0.1045
  209POPC   C3410953   5.951   0.209   2.711  0.5623 -0.5233  0.0803
  209POPC   H4X10954   6.046   0.166   2.752  1.7363  0.6539 -1.2787
  209POPC   H4Y10955   5.937   0.179   2.605  0.1188 -0.1152  0.0233
  209POPC   C3510956   5.829   0.173   2.801 -0.2785 -0.3930  0.5385
  209POPC   H5X10957   5.813   0.063   2.790 -2.1315 -0.2598  1.5697
  209POPC   H5Y10958   5.747   0.239   2.767  0.4206 -0.3118 -1.0997
  209POPC   C3610959   5.870   0.191   2.944  0.0922  0.3941 -0.6473
  209POPC   H6X10960   5.895   0.293   2.979  0.5715 -0.5422  1.9268
  209POPC   H6Y10961   5.959   0.127   2.962  1.1431  1.4690 -1.8471
  209POPC   C3710962   5.747   0.155   3.028 -0.0147  0.0169 -0.0521
  209POPC   H7X10963   5.708   0.052   3.016  2.1057 -0.8268 -0.0211
  209POPC   H7Y10964   5.659   0.212   2.990  1.0717 -0.2714 -3.2236
  209POPC   C3810965   5.772   0.178   3.180 -0.0984 -0.1849 -0.3444
  209POPC   H8X10966   5.810   0.279   3.207  0.2635 -1.1067  3.1862
  209POPC   H8Y10967   5.842   0.109   3.231  1.8504  2.1621  0.3149
  209POPC   C3910968   5.638   0.168   3.262  0.3393 -0.2741  0.7705
  209POPC   H9X10969   5.599   0.066   3.241  1.3020 -0.4610 -0.1914
  209POPC   H9Y10970   5.556   0.238   3.237 -0.3965 -0.6963  1.9447
  209POPC  C31010971   5.655   0.187   3.415 -0.3508  0.6764  0.4220
  209POPC  H10X10972   5.726   0.105   3.440  0.1908  0.2023 -2.3398
  209POPC  H10Y10973   5.562   0.177   3.475  0.6478  0.2941  1.9766
  209POPC  C31110974   5.719   0.322   3.454  0.9816  0.0254  0.0375
  209POPC  H11X10975   5.639   0.395   3.430 -0.4020 -0.5682  2.5336
  209POPC  H11Y10976   5.806   0.348   3.389  0.7813  1.7716  0.4280
  209POPC  C31210977   5.736   0.325   3.600 -0.1553  0.5236  0.2408
  209POPC  H12X10978   5.830   0.275   3.633 -0.5901  0.5425  1.6035
  209POPC  H12Y10979   5.651   0.284   3.659 -0.6258  0.3922 -0.5245
  209POPC  C31310980   5.754   0.469   3.648  0.2283  0.6875 -0.1426
  209POPC  H13X10981   5.655   0.518   3.634 -0.2452 -0.7793 -2.4414
  209POPC  H13Y10982   5.831   0.523   3.589 -0.4752  1.0198 -0.7627
  209POPC  C31410983   5.785   0.475   3.798  0.1124 -0.8765 -0.7627
  209POPC  H14X10984   5.810   0.581   3.815 -2.0944 -0.2107 -1.3103
  209POPC  H14Y10985   5.868   0.409   3.830  1.0297  0.8811  0.6397
  209POPC  C31510986   5.655   0.464   3.891 -0.3354 -0.1890 -0.4562
  209POPC  H15X10987   5.605   0.367   3.873 -0.4261 -0.2126 -0.0846
  209POPC  H15Y10988   5.581   0.547   3.876 -0.6886 -0.5479 -0.7384
  209POPC  C31610989   5.692   0.474   4.050  0.1450 -0.3408  0.5859
  209POPC  H16X10990   5.601   0.467   4.114 -1.3548  0.1330 -1.4063
  209POPC  H16Y10991   5.740   0.574   4.061 -1.5307  0.3396  2.4431
  209POPC  H16Z10992   5.763   0.392   4.074  1.4191 -0.6658 -3.5118
  210POPC     N10993   1.707   0.226   2.712 -0.4317  0.2233 -0.1505
  210POPC   C1210994   1.762   0.185   2.851  0.1842 -0.4741  0.8444
  210POPC  H12A10995   1.691   0.216   2.926 -0.2914 -0.7340  0.5017
  210POPC  H12B10996   1.857   0.233   2.873 -0.7372  2.5269 -1.1184
  210POPC   C1310997   1.815   0.191   2.613 -0.0266 -0.0237  0.0060
  210POPC  H13A10998   1.826   0.084   2.618 -0.7094 -0.0635  1.0150
  210POPC  H13B10999   1.781   0.223   2.515  0.5335 -1.0554 -0.5407
  210POPC  H13C11000   1.907   0.244   2.632  1.2048 -1.2058 -2.2747
  210POPC   C1411001   1.576   0.160   2.691 -0.1316  0.6371 -0.0347
  210POPC  H14A11002   1.519   0.189   2.604 -3.5426 -0.5678  1.6090
  210POPC  H14B11003   1.598   0.054   2.689  0.9799  0.7479  2.3816
  210POPC  H14C11004   1.533   0.169   2.789  4.0227 -1.1408  2.2192
  210POPC   C1511005   1.686   0.376   2.712  0.6117 -0.8746  0.5647
  210POPC  H15A11006   1.599   0.408   2.767 -0.0183  2.8985 -2.2733
  210POPC  H15B11007   1.662   0.409   2.612  3.5916 -1.9186 -0.6139
  210POPC  H15C11008   1.772   0.424   2.756  2.7717 -2.6298 -1.4779
  210POPC   C1111009   1.778   0.029   2.877  0.3899 -0.2206 -0.0012
  210POPC  H11A11010   1.853   0.013   2.957  2.0060 -0.5100 -1.5067
  210POPC  H11B11011   1.806  -0.023   2.782  0.5047 -0.1935  0.0174
  210POPC     P11012   1.574   0.012   3.046 -0.0848  0.0103  0.3208
  210POPC   O1311013   1.440   0.058   3.009  0.2298 -0.5509 -0.4833
  210POPC   O1411014   1.652   0.104   3.137  0.0777 -0.2755  0.0763
  210POPC   O1211015   1.655   6.419   2.916 -0.3825 -0.1867  0.4776
  210POPC   O1111016   1.566   6.319   3.109  0.2135 -0.4023 -0.1270
  210POPC    C111017   1.447   6.239   3.089 -0.6262 -0.4098  0.6722
  210POPC    HA11018   1.480   6.133   3.082  0.1173 -0.1013 -1.0773
  210POPC    HB11019   1.401   6.253   2.989  0.2006 -0.4000  0.2783
  210POPC    C211020   1.345   6.239   3.205 -0.0244 -0.0440  0.5628
  210POPC    HS11021   1.312   6.344   3.223 -1.7726 -0.3766 -0.5215
  210POPC   O2111022   1.394   6.178   3.322 -0.3402  0.6131 -0.0227
  210POPC   C2111023   1.409   6.254   3.425  0.1627  0.7546 -0.6563
  210POPC   O2211024   1.413   6.375   3.430  0.3397 -0.0352  0.4701
  210POPC   C2211025   1.400   6.163   3.549  0.1346  0.6595 -0.4591
  210POPC   H2R11026   1.486   6.093   3.560 -0.4347  0.1709  1.1381
  210POPC   H2S11027   1.312   6.096   3.548  0.3160  0.3973  0.3718
  210POPC    C311028   1.224   6.156   3.170  0.8226  0.3130  0.5149
  210POPC    HX11029   1.256   6.052   3.149  3.6860  1.1691  0.2737
  210POPC    HY11030   1.167   6.199   3.084 -0.3801  1.1054  1.6627
  210POPC   O3111031   1.127   6.142   3.276  0.1222  0.2668 -0.0462
  210POPC   C3111032   1.066   6.249   3.316  0.5616  0.3062 -0.6599
  210POPC   O3211033   1.080   6.364   3.271  1.0849  0.8946 -0.0041
  210POPC   C3211034   0.975   6.218   3.438 -0.5015  0.4127 -0.3529
  210POPC   H2X11035   0.908   6.133   3.415 -0.3312  0.2421 -0.2223
  210POPC   H2Y11036   0.919   6.313   3.451  1.0671  1.0439  2.5748
  210POPC   C2311037   1.381   6.245   3.675 -0.1516  0.2561 -0.2695
  210POPC   H3R11038   1.317   6.335   3.676  0.2610  0.5850  2.0759
  210POPC   H3S11039   1.481   6.280   3.708 -0.1577 -0.4410  0.5093
  210POPC   C2411040   1.329   6.151   3.789  0.0008 -0.0156  0.0412
  210POPC   H4R11041   1.406   6.074   3.811  1.3444  1.1118 -0.5615
  210POPC   H4S11042   1.240   6.099   3.747  1.4748 -1.4622 -1.4257
  210POPC   C2511043   1.292   6.226   3.916 -0.1800  0.2786  0.1066
  210POPC   H5R11044   1.231   6.316   3.895 -3.3500 -1.1031  2.6283
  210POPC   H5S11045   1.385   6.268   3.962 -0.4215 -1.1274  1.9835
  210POPC   C2611046   1.232   6.134   4.024 -0.5322 -0.0128 -0.2684
  210POPC   H6R11047   1.296   6.045   4.038 -2.1804 -1.1859  0.1430
  210POPC   H6S11048   1.132   6.105   3.986 -1.3388  0.0531  1.6946
  210POPC   C2711049   1.219   6.209   4.159 -0.4186 -0.8285 -0.4437
  210POPC   H7R11050   1.138   6.286   4.154 -0.5141 -0.9561 -1.0400
  210POPC   H7S11051   1.307   6.265   4.197 -1.1720 -1.7195  2.9304
  210POPC   C2811052   1.195   6.110   4.273 -0.2976  0.2768 -0.4862
  210POPC   H8R11053   1.279   6.039   4.292  2.0298  2.8402 -0.5434
  210POPC   H8S11054   1.104   6.052   4.247  0.1795 -1.4864  1.5302
  210POPC   C2911055   1.168   6.177   4.407 -0.2865  0.3329  0.5413
  210POPC   H9111056   1.233   6.261   4.433  0.9010 -1.0434  2.2884
  210POPC  C21011057   1.093   6.133   4.511  0.5340 -0.1068  0.9495
  210POPC  H10111058   1.080   6.200   4.597 -0.5266 -1.6680  2.0667
  210POPC  C21111059   0.987   6.023   4.510 -0.9178 -0.4476  0.5196
  210POPC  H11R11060   1.040   5.927   4.526  1.3291  0.9774  2.5492
  210POPC  H11S11061   0.929   6.023   4.416 -1.5318 -0.0860  0.8910
  210POPC  C21211062   0.876   6.028   4.624  0.4437  0.1965  0.3493
  210POPC  H12R11063   0.811   5.941   4.601 -0.0286  0.9800 -1.5268
  210POPC  H12S11064   0.818   6.122   4.621 -1.1510 -0.7646  0.0950
  210POPC  C21311065   0.937   6.009   4.757  0.7717 -0.4746 -0.3493
  210POPC  H13R11066   0.959   6.114   4.786 -1.3898 -0.4290  1.3632
  210POPC  H13S11067   1.021   5.939   4.741  0.2954 -0.7969 -1.5519
  210POPC  C21411068   0.835   5.961   4.858 -0.4616 -0.3388  0.3564
  210POPC  H14R11069   0.821   5.851   4.849  0.4855 -0.4677  0.3486
  210POPC  H14S11070   0.730   5.993   4.839  0.4001  1.7861 -1.1981
  210POPC  C21511071   0.878   6.006   5.002  0.0756 -0.1633 -0.6079
  210POPC  H15R11072   0.890   6.117   4.996  0.5549 -0.2756 -2.8251
  210POPC  H15S11073   0.976   5.969   5.037 -0.3917  0.0495  1.0219
  210POPC  C21611074   0.778   5.943   5.100 -0.2534 -0.7008 -0.5153
  210POPC  H16R11075   0.769   5.837   5.067 -0.9495 -1.4263  1.8144
  210POPC  H16S11076   0.679   5.987   5.076 -0.8148 -1.2213  0.7729
  210POPC  C21711077   0.807   5.958   5.250 -0.1081 -0.4830  0.1718
  210POPC  H17R11078   0.907   5.915   5.269  0.1597 -0.1808 -0.5070
  210POPC  H17S11079   0.736   5.892   5.303  0.5139 -0.5070  0.9940
  210POPC  C21811080   0.798   6.103   5.313 -0.4873 -0.5317 -0.5681
  210POPC  H18R11081   0.869   6.166   5.256 -0.5658  0.5297  0.4731
  210POPC  H18S11082   0.827   6.098   5.420 -0.4940  1.1499 -0.4599
  210POPC  H18T11083   0.698   6.149   5.311  0.5179  1.7929 -2.4308
  210POPC   C3311084   1.055   6.200   3.561 -0.2820 -0.2075  0.3012
  210POPC   H3X11085   1.136   6.274   3.575  0.2848 -1.2060  2.7409
  210POPC   H3Y11086   1.102   6.099   3.557 -1.7121 -0.9202  0.8380
  210POPC   C3411087   0.968   6.222   3.689 -0.3226 -0.3793 -0.1052
  210POPC   H4X11088   1.028   6.198   3.779 -1.2127  1.4099  1.0153
  210POPC   H4Y11089   0.890   6.143   3.690 -0.1563 -0.5531  1.3225
  210POPC   C3511090   0.913   6.365   3.711 -0.0526  0.0794  0.1506
  210POPC   H5X11091   0.851   6.396   3.624 -0.4715 -1.6498 -0.2023
  210POPC   H5Y11092   0.998   6.435   3.726  0.6085 -0.7826  0.4565
  210POPC   C3611093   0.817   6.369   3.835 -0.6518  0.3834  0.2079
  210POPC   H6X11094   0.722   6.317   3.811 -0.5733  0.9301 -1.4170
  210POPC   H6Y11095   0.783   6.475   3.845 -0.5911  0.4330 -0.0989
  210POPC   C3711096   0.886   6.323   3.965 -0.3901 -0.1759  1.4411
  210POPC   H7X11097   0.970   6.393   3.983 -0.3669 -0.0289  0.7868
  210POPC   H7Y11098   0.938   6.226   3.946  0.4347  0.7802 -1.7870
  210POPC   C3811099   0.800   6.335   4.095  1.1722  0.5049  0.2499
  210POPC   H8X11100   0.703   6.282   4.082  2.0331 -1.0336 -0.1777
  210POPC   H8Y11101   0.769   6.441   4.106  0.7408  0.4028  0.0316
  210POPC   C3911102   0.858   6.289   4.226  0.8582 -0.7287 -0.2086
  210POPC   H9X11103   0.941   6.357   4.257 -0.2625  1.2540 -1.3441
  210POPC   H9Y11104   0.892   6.184   4.236  0.1941 -0.7664  2.0676
  210POPC  C31011105   0.749   6.296   4.335  0.6039  0.0755 -0.1757
  210POPC  H10X11106   0.709   6.399   4.342  1.3268  0.3301  0.2712
  210POPC  H10Y11107   0.799   6.288   4.433 -1.5981 -1.2996  0.9010
  210POPC  C31111108   0.656   6.176   4.340  0.1159  0.0333 -0.1676
  210POPC  H11X11109   0.713   6.080   4.343  1.4218  0.7539 -1.0281
  210POPC  H11Y11110   0.583   6.164   4.257 -2.4225 -1.6971  2.1423
  210POPC  C31211111   0.575   6.184   4.473 -0.1048 -0.0673 -0.7761
  210POPC  H12X11112   0.514   6.276   4.475  3.1689  2.2752  2.3067
  210POPC  H12Y11113   0.655   6.180   4.550 -1.7169  0.8556  0.9859
  210POPC  C31311114   0.487   6.058   4.504  0.4291 -0.4447 -0.0881
  210POPC  H13X11115   0.555   5.971   4.492  1.5699  0.5087 -0.6874
  210POPC  H13Y11116   0.419   6.054   4.416  0.8145  0.4111 -0.4362
  210POPC  C31411117   0.408   6.092   4.638  0.3241  0.1427  0.3057
  210POPC  H14X11118   0.308   6.042   4.638 -0.8779  2.4065  0.2431
  210POPC  H14Y11119   0.385   6.200   4.633 -0.8181 -0.1344 -1.8270
  210POPC  C31511120   0.485   6.075   4.769 -0.4369  0.6031  0.0543
  210POPC  H15X11121   0.568   6.149   4.770  1.5931 -1.4903  3.0184
  210POPC  H15Y11122   0.527   5.972   4.777 -1.3490  0.0965 -1.2934
  210POPC  C31611123   0.401   6.099   4.895  0.9227  0.4927  0.3649
  210POPC  H16X11124   0.455   6.056   4.982 -0.6075  0.2720  1.2595
  210POPC  H16Y11125   0.298   6.057   4.899  0.4385  1.5607 -0.4573
  210POPC  H16Z11126   0.392   6.210   4.899 -4.4594  0.3961 -0.8693
  211POPC     N11127   5.951   4.708   2.655 -0.6756  0.0879 -0.1435
  211POPC   C1211128   5.876   4.821   2.725 -0.3492 -0.1073  0.0200
  211POPC  H12A11129   5.832   4.890   2.654  3.4540  0.1493 -2.3833
  211POPC  H12B11130   5.945   4.879   2.786 -1.2710  1.7187 -0.6094
  211POPC   C1311131   5.872   4.618   2.567 -0.8831  0.4274 -0.2151
  211POPC  H13A11132   5.928   4.531   2.535 -3.7473 -2.4806  2.0304
  211POPC  H13B11133   5.794   4.575   2.627 -0.2025 -0.9869 -0.3107
  211POPC  H13C11134   5.831   4.666   2.479 -0.0020  0.5671 -0.5626
  211POPC   C1411135   6.069   4.771   2.580  0.5693  0.1741 -0.2266
  211POPC  H14A11136   6.028   4.824   2.495  0.5543 -1.0887 -1.0370
  211POPC  H14B11137   6.128   4.842   2.636  0.2709  0.1037  0.1750
  211POPC  H14C11138   6.128   4.696   2.528  0.2052 -0.1707 -0.1539
  211POPC   C1511139   6.018   4.626   2.762 -0.0127 -0.1530  0.1954
  211POPC  H15A11140   6.080   4.681   2.832  0.1105  0.0950 -0.1043
  211POPC  H15B11141   6.089   4.570   2.704 -0.2192  0.5575 -0.7580
  211POPC  H15C11142   5.950   4.567   2.823 -1.2759 -0.6755 -1.6513
  211POPC   C1111143   5.762   4.780   2.819 -0.1073 -0.5510 -0.3777
  211POPC  H11A11144   5.725   4.866   2.878 -2.6275 -4.0487  3.7136
  211POPC  H11B11145   5.795   4.701   2.890  0.4120  0.3214  0.3605
  211POPC     P11146   5.539   4.638   2.782 -0.1385  0.1358 -0.3233
  211POPC   O1311147   5.490   4.560   2.668  0.3646  0.3089  0.3527
  211POPC   O1411148   5.439   4.711   2.860 -0.5409  0.4699  0.3432
  211POPC   O1211149   5.651   4.737   2.737  0.2756  0.1218  0.3962
  211POPC   O1111150   5.624   4.551   2.877 -0.5573 -0.0975 -0.6440
  211POPC    C111151   5.557   4.478   2.986 -0.6739 -0.0678 -0.3832
  211POPC    HA11152   5.563   4.370   2.962 -1.0736 -0.2539  0.3293
  211POPC    HB11153   5.450   4.504   3.003 -0.2550  2.7938 -1.5990
  211POPC    C211154   5.637   4.488   3.119 -0.2866  1.0226  0.5139
  211POPC    HS11155   5.577   4.435   3.196 -1.2989 -1.0761 -1.5629
  211POPC   O2111156   5.664   4.628   3.151 -0.2730 -0.4784 -0.2393
  211POPC   C2111157   5.671   4.656   3.281 -0.2861  0.0214  0.0718
  211POPC   O2211158   5.642   4.575   3.365 -0.5529  0.2759  0.3926
  211POPC   C2211159   5.739   4.796   3.300  0.2569 -0.2656 -0.7044
  211POPC   H2R11160   5.688   4.858   3.223 -2.9703 -0.7806  0.8616
  211POPC   H2S11161   5.848   4.779   3.287  0.2662  0.0216 -1.0294
  211POPC    C311162   5.772   4.407   3.095  0.2991  0.2906 -0.3229
  211POPC    HX11163   5.834   4.456   3.017  2.5186 -1.0176  0.5021
  211POPC    HY11164   5.748   4.306   3.056 -1.6063 -0.2439  2.0338
  211POPC   O3111165   5.858   4.399   3.208 -0.0990  0.2054 -0.2795
  211POPC   C3111166   5.832   4.304   3.293  0.1944  0.0690 -1.1182
  211POPC   O3211167   5.741   4.222   3.281  0.1067  0.0810 -1.1824
  211POPC   C3211168   5.926   4.327   3.416 -0.7831 -0.2189 -0.1029
  211POPC   H2X11169   5.921   4.438   3.416 -3.6767 -0.2793  0.6259
  211POPC   H2Y11170   6.029   4.290   3.395 -1.7123 -2.6268 -0.6224
  211POPC   C2311171   5.712   4.858   3.436 -0.2346  0.0803 -0.6005
  211POPC   H3R11172   5.789   4.937   3.451 -0.8048  0.2380  2.0463
  211POPC   H3S11173   5.713   4.779   3.514 -0.1695  0.1777 -0.5029
  211POPC   C2411174   5.576   4.930   3.453 -0.2556  0.4561  0.3494
  211POPC   H4R11175   5.494   4.856   3.445  0.8191 -1.1740  2.8693
  211POPC   H4S11176   5.564   5.006   3.374  0.1047 -0.8872 -1.0394
  211POPC   C2511177   5.563   4.996   3.591 -0.5299 -0.0312 -1.5495
  211POPC   H5R11178   5.630   5.085   3.585  0.0290 -0.3764 -0.6937
  211POPC   H5S11179   5.619   4.927   3.658  1.5242  2.8290 -0.0774
  211POPC   C2611180   5.418   5.027   3.635  0.4619 -0.1022  0.2118
  211POPC   H6R11181   5.372   4.925   3.628 -1.9473  0.7706  1.9518
  211POPC   H6S11182   5.364   5.093   3.564 -1.3846  0.0343  1.6758
  211POPC   C2711183   5.406   5.076   3.782  0.3695  0.0496  0.0831
  211POPC   H7R11184   5.474   5.163   3.799 -0.4762  1.2518 -2.2317
  211POPC   H7S11185   5.439   4.996   3.851  0.0266 -0.6292 -0.5300
  211POPC   C2811186   5.258   5.117   3.826  0.5733 -0.1892  0.5292
  211POPC   H8R11187   5.190   5.038   3.788 -1.5217  2.1337 -0.8827
  211POPC   H8S11188   5.235   5.213   3.775  6.0421 -0.2654 -2.8272
  211POPC   C2911189   5.259   5.142   3.976  0.3245  0.2510 -0.5861
  211POPC   H9111190   5.342   5.204   4.013  0.2630  2.1333 -3.3862
  211POPC  C21011191   5.159   5.098   4.063  0.0670  0.5940 -0.3363
  211POPC  H10111192   5.161   5.132   4.168 -0.7106 -1.9727  0.5886
  211POPC  C21111193   5.032   5.025   4.022 -0.7575 -0.0811 -0.3124
  211POPC  H11R11194   5.060   4.921   3.998  2.8460  0.9182 -1.0383
  211POPC  H11S11195   4.984   5.076   3.935  0.3865 -2.5759 -2.5204
  211POPC  C21211196   4.940   5.032   4.148  0.5266  0.6778  0.1701
  211POPC  H12R11197   4.988   4.990   4.238 -1.2303 -1.5072  0.1705
  211POPC  H12S11198   4.844   4.977   4.134  1.9966 -1.6403 -1.4990
  211POPC  C21311199   4.891   5.174   4.185  0.2386 -0.2866 -0.6747
  211POPC  H13R11200   4.887   5.250   4.104 -1.1412 -1.7976 -2.1195
  211POPC  H13S11201   4.981   5.213   4.235  0.0026 -0.5770 -0.0130
  211POPC  C21411202   4.789   5.180   4.299  0.3347  0.4620 -0.8897
  211POPC  H14R11203   4.807   5.087   4.357 -1.5326  0.3836 -0.3545
  211POPC  H14S11204   4.686   5.166   4.258  0.3602 -2.0276 -0.2990
  211POPC  C21511205   4.794   5.290   4.404  0.4450  0.0069  0.6021
  211POPC  H15R11206   4.695   5.305   4.452 -0.3878 -2.3683 -0.2500
  211POPC  H15S11207   4.819   5.380   4.343 -0.8006 -0.0213  0.0299
  211POPC  C21611208   4.908   5.270   4.506 -0.0254 -0.4201  0.7627
  211POPC  H16R11209   5.008   5.271   4.457  0.1120  0.3370  1.0438
  211POPC  H16S11210   4.902   5.169   4.550  0.6734 -0.1797  1.4218
  211POPC  C21711211   4.906   5.380   4.622 -0.4764 -0.4222  0.0606
  211POPC  H17R11212   4.995   5.367   4.687 -0.4548 -0.6542 -0.0156
  211POPC  H17S11213   4.814   5.352   4.678 -0.9315 -1.0959 -0.9877
  211POPC  C21811214   4.890   5.528   4.585  0.3554  0.1631  0.0492
  211POPC  H18R11215   4.861   5.582   4.677 -2.4566  0.1796 -0.7521
  211POPC  H18S11216   4.795   5.536   4.528  1.5310  1.0350 -1.9221
  211POPC  H18T11217   4.978   5.566   4.528  0.0181 -1.4025 -1.6124
  211POPC   C3311218   5.878   4.264   3.546  0.4546  1.2306  0.1456
  211POPC   H3X11219   5.863   4.156   3.524  4.6307  0.7058 -0.9657
  211POPC   H3Y11220   5.780   4.311   3.568  0.5129  0.6034  1.8160
  211POPC   C3411221   5.970   4.279   3.668  0.2179  0.6745 -0.1300
  211POPC   H4X11222   5.968   4.388   3.688  0.3763  1.4086 -3.6124
  211POPC   H4Y11223   6.072   4.246   3.638 -0.4241 -0.9901 -0.6110
  211POPC   C3511224   5.935   4.196   3.793 -0.4888  0.1687 -0.9427
  211POPC   H5X11225   5.941   4.088   3.767 -1.4687 -0.2089  0.3091
  211POPC   H5Y11226   5.832   4.222   3.825 -0.5608  0.0172 -1.0463
  211POPC   C3611227   6.016   4.216   3.923 -0.1298  0.0184 -0.0474
  211POPC   H6X11228   6.033   4.321   3.955 -0.7975 -0.4030  1.8091
  211POPC   H6Y11229   6.117   4.182   3.890 -1.1169 -2.6587 -0.5221
  211POPC   C3711230   5.965   4.148   4.049 -0.3903 -0.9542  0.3423
  211POPC   H7X11231   5.965   4.040   4.025  1.1161 -0.9464  0.1802
  211POPC   H7Y11232   5.857   4.166   4.068 -0.0180  0.3584  1.4464
  211POPC   C3811233   6.043   4.167   4.184 -0.2479  0.2182  0.4213
  211POPC   H8X11234   6.005   4.098   4.262  0.3226 -0.3191  0.2309
  211POPC   H8Y11235   6.028   4.271   4.221  2.5694  0.5501  0.8967
  211POPC   C3911236   6.190   4.145   4.170  0.0569  0.2496  0.4684
  211POPC   H9X11237   6.241   4.170   4.265  1.2795  0.9261 -0.3465
  211POPC   H9Y11238   6.235   4.190   4.079 -1.7407 -1.0408 -1.1548
  211POPC  C31011239   6.235   3.994   4.152 -0.0133  0.5087  1.1318
  211POPC  H10X11240   6.334   3.988   4.101 -2.1044 -2.8251 -3.1846
  211POPC  H10Y11241   6.187   3.947   4.063  0.1060 -1.8323  2.2191
  211POPC  C31111242   6.215   3.899   4.270  0.0699  0.4656 -0.5514
  211POPC  H11X11243   6.111   3.862   4.284  0.6003 -1.6006 -1.6383
  211POPC  H11Y11244   6.240   3.950   4.366 -0.3641 -1.5958  0.7314
  211POPC  C31211245   6.318   3.788   4.259 -0.0004  0.2940  0.3034
  211POPC  H12X11246   6.420   3.829   4.243 -0.2623  1.0621  0.5553
  211POPC  H12Y11247   6.310   3.736   4.162  0.6287 -1.2430  1.0373
  211POPC  C31311248   6.320   3.690   4.378 -0.2425 -0.8057 -0.4806
  211POPC  H13X11249   6.230   3.628   4.357 -1.6588  1.0718 -0.2373
  211POPC  H13Y11250   6.311   3.742   4.476  0.5247 -1.7463  0.1043
  211POPC  C31411251   0.000   3.599   4.374 -0.6787 -0.6023 -0.1096
  211POPC  H14X11252   0.016   3.544   4.279  1.0235 -1.1516  0.4476
  211POPC  H14Y11253   0.006   3.531   4.462  0.4059  1.3088  1.3934
  211POPC  C31511254   0.135   3.677   4.377 -0.1210  0.0670  0.9410
  211POPC  H15X11255   0.195   3.618   4.449 -0.7838 -1.4967  0.2568
  211POPC  H15Y11256   0.121   3.775   4.428  1.4687  0.2934  0.9891
  211POPC  C31611257   0.211   3.706   4.242  0.0145 -0.2811 -0.7081
  211POPC  H16X11258   0.154   3.741   4.154 -0.7856 -1.3508 -0.6315
  211POPC  H16Y11259   0.245   3.606   4.206 -3.0302 -2.1126  1.1074
  211POPC  H16Z11260   0.301   3.769   4.262  0.1395  0.3497 -3.0358
  212POPC     N11261   3.972   3.252   2.373  0.0930 -0.1666 -0.2000
  212POPC   C1211262   3.994   3.254   2.525  0.5475  0.0363  0.0878
  212POPC  H12A11263   3.992   3.153   2.563  2.4639  0.0448  0.3259
  212POPC  H12B11264   3.912   3.303   2.576  0.2823 -0.3394  0.0302
  212POPC   C1311265   3.850   3.171   2.340 -0.1956  0.2943  0.1334
  212POPC  H13A11266   3.808   3.178   2.241 -0.5549  1.8336  0.3696
  212POPC  H13B11267   3.862   3.067   2.368  0.3066  0.6158  1.1666
  212POPC  H13C11268   3.776   3.204   2.411  1.3605  0.2531  1.8484
  212POPC   C1411269   3.946   3.390   2.330  0.6373  0.4371 -0.0126
  212POPC  H14A11270   3.868   3.422   2.397  0.7306 -0.4274  0.5227
  212POPC  H14B11271   4.031   3.454   2.350  1.2273 -0.1309 -0.6597
  212POPC  H14C11272   3.921   3.399   2.225  0.0616 -0.6350  0.0254
  212POPC   C1511273   4.096   3.201   2.312  0.3380  0.1811  0.2114
  212POPC  H15A11274   4.080   3.201   2.205 -1.7244 -1.6910  0.4353
  212POPC  H15B11275   4.115   3.098   2.335  1.2173 -1.0099 -4.7253
  212POPC  H15C11276   4.186   3.256   2.335 -0.4246  0.9291  1.5867
  212POPC   C1111277   4.118   3.329   2.581 -0.2000  0.0490 -0.0913
  212POPC  H11A11278   4.202   3.259   2.560  0.9508  1.3332  0.0546
  212POPC  H11B11279   4.105   3.334   2.691  1.8867 -2.1706  0.3496
  212POPC     P11280   4.279   3.535   2.540  0.1143  0.0377  0.1051
  212POPC   O1311281   4.284   3.636   2.436 -0.1336 -0.3564  0.6645
  212POPC   O1411282   4.391   3.441   2.551 -0.6200  0.0035  0.4270
  212POPC   O1211283   4.141   3.460   2.529 -0.4357  0.0162  0.8303
  212POPC   O1111284   4.268   3.618   2.679 -0.3417  0.0331  0.0315
  212POPC    C111285   4.149   3.691   2.730 -0.6816 -0.5778  0.2090
  212POPC    HA11286   4.065   3.619   2.736 -1.8999  0.8705  1.3013
  212POPC    HB11287   4.122   3.775   2.663 -1.5705 -0.6599  0.4542
  212POPC    C211288   4.175   3.750   2.871  0.3065 -0.2957  0.3940
  212POPC    HS11289   4.276   3.796   2.870 -1.0463  2.9558  1.1587
  212POPC   O2111290   4.162   3.637   2.963 -0.0429 -0.4534 -0.1747
  212POPC   C2111291   4.251   3.631   3.059 -0.2806 -0.2248  0.7280
  212POPC   O2211292   4.345   3.705   3.070 -0.6533 -0.1688 -0.5557
  212POPC   C2211293   4.223   3.519   3.152  0.2328  0.1591  0.7998
  212POPC   H2R11294   4.199   3.428   3.093 -0.3999  2.1733 -2.2825
  212POPC   H2S11295   4.121   3.546   3.187 -0.8685 -0.2381 -1.9119
  212POPC    C311296   4.081   3.863   2.920 -0.5910  0.4522 -0.0038
  212POPC    HX11297   4.106   3.954   2.861  0.7811 -0.4020 -0.7960
  212POPC    HY11298   4.124   3.890   3.019  0.2229 -1.2906  0.1596
  212POPC   O3111299   3.940   3.842   2.924 -0.2956 -0.2047 -0.2559
  212POPC   C3111300   3.885   3.803   3.046  0.1332  0.0824 -0.1567
  212POPC   O3211301   3.955   3.782   3.146  1.0316 -0.2275  0.0850
  212POPC   C3211302   3.731   3.799   3.030 -0.4539  0.0727 -0.6605
  212POPC   H2X11303   3.710   3.747   2.935 -1.1555 -3.0197  1.0693
  212POPC   H2Y11304   3.688   3.902   3.026  0.8849  0.6140 -1.8557
  212POPC   C2311305   4.317   3.518   3.273 -0.2360 -0.0694  0.6875
  212POPC   H3R11306   4.301   3.610   3.332  1.3386  0.0890  0.9093
  212POPC   H3S11307   4.425   3.512   3.246 -0.6757 -0.5596 -1.1148
  212POPC   C2411308   4.281   3.402   3.363  0.1251 -0.0674 -0.1533
  212POPC   H4R11309   4.284   3.305   3.308  0.1578 -0.1689  0.0269
  212POPC   H4S11310   4.178   3.413   3.405  0.8446  0.6846  1.5191
  212POPC   C2511311   4.377   3.383   3.484  0.1740  0.7716  0.4314
  212POPC   H5R11312   4.383   3.482   3.535 -0.5781  1.3598 -0.5981
  212POPC   H5S11313   4.474   3.340   3.449 -0.7717 -2.9509  1.8779
  212POPC   C2611314   4.316   3.271   3.575 -0.3208 -0.4347  0.0702
  212POPC   H6R11315   4.298   3.174   3.526 -1.6306  0.3112 -0.9775
  212POPC   H6S11316   4.221   3.316   3.611  0.6009  1.2629  0.5262
  212POPC   C2711317   4.393   3.246   3.708 -0.4670  0.2070  0.0737
  212POPC   H7R11318   4.421   3.345   3.751 -0.9558 -0.2536  1.5193
  212POPC   H7S11319   4.484   3.193   3.670 -0.8159  0.3147 -0.9385
  212POPC   C2811320   4.319   3.171   3.814  0.4392 -0.2268  0.0969
  212POPC   H8R11321   4.218   3.213   3.832  0.5847 -0.1329  0.7224
  212POPC   H8S11322   4.375   3.187   3.909 -1.0907  3.1331  0.5792
  212POPC   C2911323   4.287   3.032   3.777  0.4968  0.7256  0.0927
  212POPC   H9111324   4.205   3.017   3.705 -0.9277  1.2346  1.5470
  212POPC  C21011325   4.376   2.940   3.782  0.0431  0.2692  0.1399
  212POPC  H10111326   4.349   2.844   3.736  2.9306 -0.1789 -0.8688
  212POPC  C21111327   4.513   2.941   3.852  0.2315 -0.1977 -1.2446
  212POPC  H11R11328   4.537   3.046   3.881 -0.0888 -0.1506 -1.1487
  212POPC  H11S11329   4.584   2.915   3.771 -0.1172  0.3389 -1.7257
  212POPC  C21211330   4.517   2.845   3.962 -0.4205 -0.8223 -0.3487
  212POPC  H12R11331   4.525   2.741   3.923 -0.1369 -0.7415 -0.5099
  212POPC  H12S11332   4.425   2.855   4.024 -1.7136 -0.8927 -2.1928
  212POPC  C21311333   4.644   2.870   4.046 -0.0382  0.3120 -0.8391
  212POPC  H13R11334   4.647   2.977   4.074 -1.1402  0.0237  0.5047
  212POPC  H13S11335   4.742   2.851   3.997  0.6795 -0.9103  0.9702
  212POPC  C21411336   4.645   2.796   4.181  0.7652 -0.6148 -0.1652
  212POPC  H14R11337   4.638   2.686   4.162 -1.9483 -0.1018 -3.0185
  212POPC  H14S11338   4.550   2.824   4.230 -0.4168 -3.1835 -0.7865
  212POPC  C21511339   4.748   2.826   4.297  0.7836 -0.0764  0.2461
  212POPC  H15R11340   4.758   2.934   4.321  1.3728 -0.5362  2.2939
  212POPC  H15S11341   4.843   2.789   4.253  1.3922  2.0606 -0.3909
  212POPC  C21611342   4.711   2.751   4.425  0.2593 -0.2733 -0.3559
  212POPC  H16R11343   4.702   2.642   4.409 -0.5361 -0.2269 -0.2459
  212POPC  H16S11344   4.610   2.786   4.453  0.9093  0.3526  1.3600
  212POPC  C21711345   4.810   2.777   4.534 -0.4546 -0.0419  0.5492
  212POPC  H17R11346   4.807   2.886   4.558  2.0353  0.1759  0.1531
  212POPC  H17S11347   4.906   2.747   4.486 -1.8294 -0.8629 -1.8420
  212POPC  C21811348   4.779   2.706   4.664  0.0047 -0.1605  0.2008
  212POPC  H18R11349   4.848   2.739   4.744  0.3963 -0.1553 -0.1343
  212POPC  H18S11350   4.776   2.597   4.643 -0.9775 -0.1841  0.4340
  212POPC  H18T11351   4.681   2.738   4.704  0.6927  0.7375  1.2338
  212POPC   C3311352   3.656   3.713   3.148 -0.0374 -0.6940 -0.5172
  212POPC   H3X11353   3.709   3.619   3.172  0.0989 -0.0755  1.9000
  212POPC   H3Y11354   3.557   3.684   3.109 -0.1194 -1.3157  0.1434
  212POPC   C3411355   3.642   3.794   3.281  0.0344 -0.4758  0.1058
  212POPC   H4X11356   3.620   3.898   3.248 -0.3969 -0.3909  0.6617
  212POPC   H4Y11357   3.741   3.793   3.333 -1.1547 -1.0288  2.4890
  212POPC   C3511358   3.525   3.749   3.362  0.8442  1.2151 -0.0523
  212POPC   H5X11359   3.527   3.640   3.383 -0.8190  0.5942 -2.6113
  212POPC   H5Y11360   3.430   3.764   3.307  1.5166  3.9244 -0.5838
  212POPC   C3611361   3.526   3.828   3.497  0.5786 -0.3193  0.4917
  212POPC   H6X11362   3.522   3.937   3.475  2.6742 -0.3807 -0.3363
  212POPC   H6Y11363   3.621   3.803   3.548  0.3274 -0.4086  0.9243
  212POPC   C3711364   3.417   3.793   3.605 -0.3025  0.3758 -0.1176
  212POPC   H7X11365   3.314   3.806   3.565  0.7477  0.7622 -2.9124
  212POPC   H7Y11366   3.432   3.857   3.695  0.9508 -0.6452  0.4307
  212POPC   C3811367   3.442   3.651   3.668  0.8998 -0.7852 -0.1142
  212POPC   H8X11368   3.539   3.657   3.722 -0.0871  2.2193  1.5402
  212POPC   H8Y11369   3.446   3.574   3.588  3.3712 -0.2030 -0.6223
  212POPC   C3911370   3.328   3.607   3.764  0.1231  0.2503  0.3809
  212POPC   H9X11371   3.225   3.641   3.740  0.3689  0.6726 -0.1146
  212POPC   H9Y11372   3.334   3.650   3.866 -4.5997  2.1192  0.1226
  212POPC  C31011373   3.331   3.458   3.783  0.2201 -0.0354 -0.3904
  212POPC  H10X11374   3.438   3.431   3.796  0.9498  1.8729 -1.9246
  212POPC  H10Y11375   3.298   3.415   3.686 -0.5661  0.9058 -0.5609
  212POPC  C31111376   3.244   3.404   3.898 -0.2604 -0.0426  0.6227
  212POPC  H11X11377   3.136   3.426   3.883 -1.1140 -3.7037  0.3018
  212POPC  H11Y11378   3.265   3.452   3.996  0.3214  0.2034  0.3797
  212POPC  C31211379   3.255   3.259   3.920  0.3388  0.1299 -0.0242
  212POPC  H12X11380   3.214   3.190   3.843 -1.2511  0.9669  0.0275
  212POPC  H12Y11381   3.209   3.231   4.017  0.5973 -2.0386 -0.4731
  212POPC  C31311382   3.398   3.211   3.942 -0.0731  0.0760 -0.0626
  212POPC  H13X11383   3.456   3.265   4.020  1.3954  0.3302 -1.2820
  212POPC  H13Y11384   3.449   3.230   3.846  0.5150  2.2073  0.6101
  212POPC  C31411385   3.409   3.065   3.986 -0.6747  0.2395 -0.6009
  212POPC  H14X11386   3.387   3.000   3.899 -2.3085 -1.4660  0.9806
  212POPC  H14Y11387   3.335   3.041   4.065  1.0991 -2.7842  0.3108
  212POPC  C31511388   3.550   3.033   4.046 -0.0999 -0.8752  0.4392
  212POPC  H15X11389   3.563   3.084   4.144  1.4106 -1.1108  0.3812
  212POPC  H15Y11390   3.621   3.081   3.976 -0.4670 -2.0845 -0.7992
  212POPC  C31611391   3.590   2.895   4.053 -0.4186  0.7139  0.0408
  212POPC  H16X11392   3.535   2.838   4.131  1.3732  1.3069  1.8264
  212POPC  H16Y11393   3.696   2.897   4.089 -0.5913  0.5701  0.5675
  212POPC  H16Z11394   3.587   2.839   3.957 -0.1696  0.1823  0.3398
  213POPC     N11395   4.724   1.940   2.129 -1.2039  0.6478  0.3950
  213POPC   C1211396   4.737   1.837   2.254  0.1674 -0.3865 -0.9440
  213POPC  H12A11397   4.683   1.751   2.217 -0.1405 -0.0063 -1.3966
  213POPC  H12B11398   4.690   1.873   2.345 -2.0514 -0.6952 -1.8901
  213POPC   C1311399   4.811   2.056   2.144  0.1654 -0.2360 -0.1437
  213POPC  H13A11400   4.917   2.041   2.138 -0.1782 -2.4372 -3.4799
  213POPC  H13B11401   4.786   2.126   2.066 -0.9528 -1.2220 -0.7215
  213POPC  H13C11402   4.792   2.108   2.237  0.9542 -0.0581 -0.0793
  213POPC   C1411403   4.761   1.879   1.997 -0.4151 -0.3197  0.1117
  213POPC  H14A11404   4.690   1.802   1.971  0.3992 -1.4305  1.0810
  213POPC  H14B11405   4.770   1.953   1.919 -2.3139 -0.3954 -0.2358
  213POPC  H14C11406   4.861   1.837   1.999  1.0671  2.9084 -0.4181
  213POPC   C1511407   4.576   1.976   2.114 -0.8165 -0.0087 -0.0355
  213POPC  H15A11408   4.543   2.034   2.199  1.7800  1.1224  0.2683
  213POPC  H15B11409   4.515   1.886   2.114  1.3867 -1.6153  2.0688
  213POPC  H15C11410   4.567   2.036   2.024 -1.9245  1.1573  0.8241
  213POPC   C1111411   4.881   1.804   2.306  0.3019 -0.0481 -0.2521
  213POPC  H11A11412   4.940   1.780   2.215  0.0140 -0.9014 -0.2300
  213POPC  H11B11413   4.870   1.716   2.373 -1.3656 -0.2737 -0.7513
  213POPC     P11414   5.079   1.884   2.445 -0.8088  0.0419  0.6710
  213POPC   O1311415   5.183   1.972   2.389  0.2671 -0.0447  0.2585
  213POPC   O1411416   5.114   1.743   2.443 -0.1648 -0.0735  0.0201
  213POPC   O1211417   4.946   1.912   2.366  0.3160 -0.3343  0.1471
  213POPC   O1111418   5.048   1.929   2.596  0.0594 -0.2541  0.6304
  213POPC    C111419   4.936   1.857   2.656 -0.4612 -0.2273  0.1543
  213POPC    HA11420   4.971   1.754   2.677  2.5781  0.7768  0.6415
  213POPC    HB11421   4.845   1.841   2.594  1.4398 -0.2144 -2.8757
  213POPC    C211422   4.905   1.902   2.805 -0.4922  0.2210  0.2239
  213POPC    HS11423   4.941   2.004   2.828  1.8863 -0.3840 -0.4514
  213POPC   O2111424   4.949   1.804   2.904 -0.1580  0.3861  0.3179
  213POPC   C2111425   5.076   1.802   2.945  0.2031  0.0401  0.4742
  213POPC   O2211426   5.159   1.876   2.893 -1.1810 -0.4951 -0.5457
  213POPC   C2211427   5.096   1.698   3.053 -0.1437  0.5128 -0.0387
  213POPC   H2R11428   5.205   1.696   3.072  0.0444  2.2203 -0.6934
  213POPC   H2S11429   5.044   1.609   3.011 -0.9013  1.1141 -0.4185
  213POPC    C311430   4.746   1.916   2.819 -0.3255  0.0650 -0.7964
  213POPC    HX11431   4.710   1.817   2.783  2.8283 -1.2169 -0.8029
  213POPC    HY11432   4.709   1.990   2.745  0.1165  0.9518 -0.1520
  213POPC   O3111433   4.699   1.959   2.945 -0.3013 -0.5794  0.7553
  213POPC   C3111434   4.654   1.865   3.026  0.8054  0.1862 -0.1484
  213POPC   O3211435   4.640   1.747   3.002 -0.6138  0.2606 -0.3158
  213POPC   C3211436   4.648   1.924   3.164 -0.1049  0.0585  0.2789
  213POPC   H2X11437   4.545   1.960   3.183  0.2947  0.5737  1.5066
  213POPC   H2Y11438   4.719   2.008   3.172 -0.8332  0.9118 -1.6361
  213POPC   C2311439   5.037   1.743   3.186  0.2789 -0.2110  0.5313
  213POPC   H3R11440   5.058   1.664   3.261  0.7798  1.0044  1.7155
  213POPC   H3S11441   4.927   1.744   3.170  0.5033  1.9234 -1.2025
  213POPC   C2411442   5.102   1.856   3.261  0.0950 -0.1854 -0.3176
  213POPC   H4R11443   5.212   1.845   3.268  0.8667  2.6911 -4.3619
  213POPC   H4S11444   5.054   1.845   3.361 -0.1716 -0.2233 -0.4482
  213POPC   C2511445   5.062   2.000   3.210  0.9809  0.1109  0.4220
  213POPC   H5R11446   4.954   1.990   3.184  1.6543 -2.3843 -1.9517
  213POPC   H5S11447   5.116   2.022   3.116  0.4087  1.5067  0.4028
  213POPC   C2611448   5.110   2.108   3.306  0.3717  0.4588 -0.1082
  213POPC   H6R11449   5.089   2.210   3.265  2.4454  0.6840 -0.7101
  213POPC   H6S11450   5.218   2.088   3.317  0.0815  0.0345  2.3677
  213POPC   C2711451   5.041   2.111   3.446 -0.8790  0.1124 -0.4460
  213POPC   H7R11452   5.060   2.029   3.518  3.2500  0.3127 -1.0665
  213POPC   H7S11453   4.932   2.105   3.427 -0.8257 -0.0163 -0.7133
  213POPC   C2811454   5.058   2.243   3.528  0.0176 -0.0618  0.4726
  213POPC   H8R11455   5.014   2.335   3.482 -1.2982 -2.2008 -2.8875
  213POPC   H8S11456   5.168   2.256   3.534  0.1149  1.6618 -2.7715
  213POPC   C2911457   5.006   2.230   3.676 -0.0649  0.8467  0.3404
  213POPC   H9111458   4.899   2.257   3.685 -0.1124  0.7786 -0.0001
  213POPC  C21011459   5.070   2.192   3.786 -1.1147  0.1449 -0.0311
  213POPC  H10111460   5.008   2.196   3.877 -3.4666 -2.6803 -1.3307
  213POPC  C21111461   5.209   2.126   3.803  0.1964 -0.1926 -0.1561
  213POPC  H11R11462   5.244   2.080   3.708 -1.9803 -0.0166 -1.1043
  213POPC  H11S11463   5.216   2.041   3.875  2.3584 -0.9894 -1.2086
  213POPC  C21211464   5.324   2.228   3.837  0.0954  0.5720  0.7794
  213POPC  H12R11465   5.308   2.313   3.768 -2.0685 -1.3471 -1.2640
  213POPC  H12S11466   5.424   2.184   3.819 -1.1012 -1.2140 -2.3308
  213POPC  C21311467   5.327   2.264   3.985 -0.9512  0.2134  0.0889
  213POPC  H13R11468   5.238   2.324   4.013 -1.4775 -0.0344 -0.9946
  213POPC  H13S11469   5.416   2.331   3.986 -1.8935  1.5094 -0.0274
  213POPC  C21411470   5.334   2.148   4.079  0.5275 -0.1829 -0.1663
  213POPC  H14R11471   5.422   2.090   4.043  0.3664  0.7115 -2.0704
  213POPC  H14S11472   5.235   2.097   4.075  0.0390  0.4373  2.3020
  213POPC  C21511473   5.358   2.198   4.220  0.1231 -0.4737 -0.7866
  213POPC  H15R11474   5.309   2.128   4.292  0.0215 -0.8000 -1.1663
  213POPC  H15S11475   5.302   2.294   4.216 -2.9830 -2.2106 -2.9051
  213POPC  C21611476   5.509   2.215   4.259  0.7492 -0.8156 -0.1490
  213POPC  H16R11477   5.558   2.136   4.198 -1.3366 -2.4356  0.1441
  213POPC  H16S11478   5.516   2.196   4.368  1.6491 -0.3017 -0.1139
  213POPC  C21711479   5.588   2.346   4.221  0.3268  0.7735 -0.3098
  213POPC  H17R11480   5.526   2.431   4.257  0.7203  0.6932  0.5682
  213POPC  H17S11481   5.599   2.336   4.111 -0.1904 -0.0820 -0.3002
  213POPC  C21811482   5.728   2.355   4.280 -0.1088 -0.2689  0.2884
  213POPC  H18R11483   5.727   2.345   4.390  3.4047 -0.5539  0.3951
  213POPC  H18S11484   5.776   2.450   4.246 -0.2055 -0.5873 -0.7596
  213POPC  H18T11485   5.791   2.277   4.232 -0.5347  0.5611 -1.7521
  213POPC   C3311486   4.673   1.837   3.283 -0.1838  0.2974  0.7121
  213POPC   H3X11487   4.770   1.783   3.285 -0.4512 -0.1735  1.5077
  213POPC   H3Y11488   4.599   1.754   3.289  1.4890 -1.1795  2.5138
  213POPC   C3411489   4.650   1.906   3.413 -0.4900  0.2899 -0.8624
  213POPC   H4X11490   4.545   1.941   3.422 -0.5971 -0.1490 -0.2957
  213POPC   H4Y11491   4.717   1.994   3.401 -1.7896  1.1045 -2.4370
  213POPC   C3511492   4.684   1.822   3.549 -0.2679 -0.8157  0.5426
  213POPC   H5X11493   4.783   1.771   3.539 -1.0688 -2.2838 -0.1130
  213POPC   H5Y11494   4.597   1.756   3.568 -1.0936  0.1931  0.3609
  213POPC   C3611495   4.677   1.905   3.673  0.3753 -0.5283 -0.4108
  213POPC   H6X11496   4.735   1.999   3.658 -1.6543  0.5664 -1.9834
  213POPC   H6Y11497   4.717   1.860   3.766 -1.6754 -2.3966 -0.3552
  213POPC   C3711498   4.536   1.954   3.729  0.8038  0.2623  0.6202
  213POPC   H7X11499   4.462   1.980   3.651 -0.5085  1.9464  2.3251
  213POPC   H7Y11500   4.559   2.043   3.791  0.4624  0.6319  0.2215
  213POPC   C3811501   4.469   1.850   3.818  0.3735  0.1505 -0.9620
  213POPC   H8X11502   4.494   1.869   3.925 -2.4137 -0.3636 -0.1181
  213POPC   H8Y11503   4.507   1.750   3.790  1.0901 -0.1892  1.0282
  213POPC   C3911504   4.314   1.864   3.800 -0.0556  0.3830  0.0696
  213POPC   H9X11505   4.295   1.880   3.692  1.6316  2.0052 -0.0330
  213POPC   H9Y11506   4.281   1.958   3.849 -0.5459  2.3266 -3.5973
  213POPC  C31011507   4.231   1.756   3.878 -0.1839  0.1104  0.2894
  213POPC  H10X11508   4.230   1.661   3.820  1.9092  0.1918  0.0412
  213POPC  H10Y11509   4.124   1.786   3.887 -0.1459  0.8589 -1.3456
  213POPC  C31111510   4.284   1.727   4.023  0.2169  0.7864  0.5636
  213POPC  H11X11511   4.286   1.816   4.090  0.3692  1.3115 -0.1228
  213POPC  H11Y11512   4.391   1.702   4.007  0.4065  3.0379 -2.6483
  213POPC  C31211513   4.210   1.615   4.090 -0.3434  0.0881  0.2812
  213POPC  H12X11514   4.250   1.525   4.038 -0.4085  0.5268 -0.5420
  213POPC  H12Y11515   4.102   1.616   4.064 -0.9669  1.2548  2.6302
  213POPC  C31311516   4.218   1.606   4.243  0.0929 -0.3689 -0.6232
  213POPC  H13X11517   4.321   1.620   4.281  0.1886  3.2683 -1.8400
  213POPC  H13Y11518   4.189   1.502   4.270 -0.7006 -0.1426 -0.5907
  213POPC  C31411519   4.124   1.711   4.309  0.0558  0.6557 -0.5325
  213POPC  H14X11520   4.026   1.692   4.261  1.5113 -0.5612 -3.2313
  213POPC  H14Y11521   4.148   1.819   4.293 -1.5351  1.2071  0.5976
  213POPC  C31511522   4.122   1.684   4.460 -0.3769  0.4344  0.1652
  213POPC  H15X11523   4.215   1.728   4.500  0.6545 -1.1840 -0.3461
  213POPC  H15Y11524   4.124   1.575   4.483 -0.5639  0.0330 -1.5252
  213POPC  C31611525   4.000   1.742   4.538 -0.5704 -0.0316 -0.1255
  213POPC  H16X11526   3.912   1.674   4.529 -0.4980 -0.4108  1.7032
  213POPC  H16Y11527   3.982   1.843   4.497  1.4034  0.1849 -0.5703
  213POPC  H16Z11528   4.016   1.764   4.646 -2.1399 -1.4555  0.4481
  214POPC     N11529   5.841   3.652   2.747  0.2412 -0.6384  0.1966
  214POPC   C1211530   5.984   3.598   2.727  0.1254  0.1420  0.2547
  214POPC  H12A11531   6.044   3.642   2.805  0.4908 -1.2951  0.8040
  214POPC  H12B11532   6.022   3.631   2.631  0.1967 -1.4721 -0.3056
  214POPC   C1311533   5.752   3.580   2.658 -0.1075  0.2876 -0.0266
  214POPC  H13A11534   5.803   3.574   2.562  0.6788 -1.7687  0.4608
  214POPC  H13B11535   5.751   3.478   2.692 -2.1792  0.8150  1.7104
  214POPC  H13C11536   5.654   3.623   2.670  0.6565  1.8206  1.1218
  214POPC   C1411537   5.797   3.628   2.891 -0.2816  1.0449  0.1929
  214POPC  H14A11538   5.815   3.524   2.914  1.1377  0.6820 -2.2169
  214POPC  H14B11539   5.854   3.688   2.960  2.9082 -1.6008  0.1241
  214POPC  H14C11540   5.695   3.661   2.902  0.1111  2.4030 -0.0182
  214POPC   C1511541   5.825   3.802   2.711  0.0307 -0.3306 -0.8276
  214POPC  H15A11542   5.813   3.813   2.605 -0.5197 -0.3611 -0.7681
  214POPC  H15B11543   5.908   3.859   2.751 -1.1195 -0.9838  2.8460
  214POPC  H15C11544   5.739   3.841   2.763  0.3388  1.7383 -1.7819
  214POPC   C1111545   6.008   3.451   2.734 -0.1572 -0.3262 -0.0158
  214POPC  H11A11546   6.117   3.434   2.718 -0.1160  2.3986 -4.1639
  214POPC  H11B11547   5.953   3.397   2.655 -1.3527  0.0258  0.5466
  214POPC     P11548   5.931   3.265   2.892  0.1182 -0.1539  0.2912
  214POPC   O1311549   6.014   3.173   2.813  0.0967 -0.7126 -0.6157
  214POPC   O1411550   5.786   3.264   2.878  0.0412  0.7739  0.4950
  214POPC   O1211551   5.972   3.409   2.864  0.1738 -0.6362  0.4648
  214POPC   O1111552   5.974   3.252   3.046 -0.6358  0.0147 -0.0277
  214POPC    C111553   5.910   3.330   3.148 -0.2120 -0.0389  0.5743
  214POPC    HA11554   5.864   3.422   3.106  0.4819 -0.0814 -0.3083
  214POPC    HB11555   5.983   3.357   3.228  0.1431 -1.2755  0.7014
  214POPC    C211556   5.805   3.244   3.219 -0.2066  0.2250 -0.4672
  214POPC    HS11557   5.722   3.232   3.147  1.7958 -0.5140 -2.8057
  214POPC   O2111558   5.766   3.301   3.341  0.1479 -0.0382 -0.1812
  214POPC   C2111559   5.688   3.416   3.339 -0.2702  0.6805  0.1715
  214POPC   O2211560   5.632   3.458   3.240 -0.3929 -0.1726  0.2490
  214POPC   C2211561   5.696   3.477   3.476 -0.8141 -0.5211 -0.0752
  214POPC   H2R11562   5.797   3.522   3.488 -0.4520 -1.5133  0.7253
  214POPC   H2S11563   5.696   3.398   3.554 -1.1855 -0.8250 -0.3784
  214POPC    C311564   5.845   3.092   3.247  0.7408  0.8060 -0.7502
  214POPC    HX11565   5.941   3.100   3.303 -0.3709 -0.9449  1.5928
  214POPC    HY11566   5.873   3.038   3.154  1.5553 -1.4823  0.7284
  214POPC   O3111567   5.756   3.016   3.331  0.3604 -0.2104 -0.5531
  214POPC   C3111568   5.644   2.983   3.274 -0.3566 -0.3276 -0.4088
  214POPC   O3211569   5.618   2.998   3.156 -0.6307  0.1609 -0.0754
  214POPC   C3211570   5.547   2.933   3.382 -0.1077 -0.5486 -0.4334
  214POPC   H2X11571   5.583   2.833   3.413 -1.8032 -1.0585 -0.0241
  214POPC   H2Y11572   5.445   2.919   3.340 -0.8048 -0.2197  1.0628
  214POPC   C2311573   5.580   3.579   3.490 -0.6640 -0.3805  0.3746
  214POPC   H3R11574   5.487   3.543   3.442 -0.4583 -1.2309  0.5874
  214POPC   H3S11575   5.604   3.672   3.435  1.6980 -1.6602 -0.9349
  214POPC   C2411576   5.572   3.615   3.642 -0.1893 -0.4212  0.3829
  214POPC   H4R11577   5.677   3.635   3.674 -0.7783  0.6792  1.7351
  214POPC   H4S11578   5.552   3.529   3.710  0.2415 -1.0580 -0.2778
  214POPC   C2511579   5.489   3.739   3.667 -0.7595  0.5166 -0.5709
  214POPC   H5R11580   5.385   3.725   3.630 -0.3700  0.6035 -1.7103
  214POPC   H5S11581   5.524   3.820   3.601 -1.8946  0.6323 -1.0526
  214POPC   C2611582   5.481   3.779   3.818  0.7404 -0.0959 -0.1053
  214POPC   H6R11583   5.432   3.879   3.827  1.3189  0.1071  1.0037
  214POPC   H6S11584   5.583   3.788   3.862  0.2400  0.7103  0.9293
  214POPC   C2711585   5.390   3.688   3.903  0.6126  0.0401 -0.1104
  214POPC   H7R11586   5.433   3.592   3.868  2.3611  0.6183  0.3429
  214POPC   H7S11587   5.284   3.696   3.871  1.0156 -1.3374 -1.9512
  214POPC   C2811588   5.414   3.693   4.053 -0.1236 -0.2006  0.0064
  214POPC   H8R11589   5.512   3.659   4.091 -0.1227 -0.6048 -0.3534
  214POPC   H8S11590   5.342   3.628   4.109 -0.2031 -0.8404 -0.8237
  214POPC   C2911591   5.388   3.828   4.109  0.3448 -0.3839  0.0880
  214POPC   H9111592   5.282   3.853   4.117  0.6112  0.6693  0.4026
  214POPC  C21011593   5.473   3.900   4.180 -0.6016 -0.6830 -0.5526
  214POPC  H10111594   5.432   3.995   4.219 -1.8901 -1.1412 -0.7403
  214POPC  C21111595   5.630   3.882   4.196  0.7855  0.1761 -0.2648
  214POPC  H11R11596   5.683   3.978   4.208  2.6718 -0.9807  1.3898
  214POPC  H11S11597   5.682   3.839   4.108  0.0393 -0.8731 -0.2169
  214POPC  C21211598   5.659   3.798   4.320  0.0550  0.4346 -0.4980
  214POPC  H12R11599   5.626   3.693   4.303  1.2637  0.1031 -0.8944
  214POPC  H12S11600   5.606   3.833   4.411 -0.2886  0.8775 -0.8673
  214POPC  C21311601   5.805   3.811   4.361 -0.0861  0.4361  0.0814
  214POPC  H13R11602   5.828   3.919   4.363  1.6764  0.3110 -3.7690
  214POPC  H13S11603   5.872   3.763   4.287  0.7153 -0.0497  1.0992
  214POPC  C21411604   5.828   3.733   4.487 -0.7230 -0.4374  0.9056
  214POPC  H14R11605   5.800   3.627   4.470  0.6449 -0.7038  0.1968
  214POPC  H14S11606   5.768   3.774   4.571 -1.7565  0.5167 -0.2569
  214POPC  C21511607   5.978   3.743   4.533  0.5866  0.6826 -0.2844
  214POPC  H15R11608   5.999   3.849   4.555  0.2956  1.1806 -2.2183
  214POPC  H15S11609   6.051   3.722   4.452  1.6643 -0.2633  0.8914
  214POPC  C21611610   5.995   3.650   4.649  0.7718 -0.3220 -0.6299
  214POPC  H16R11611   5.962   3.548   4.622  1.7154 -0.9175  0.3860
  214POPC  H16S11612   5.929   3.694   4.727  0.5320  1.9946 -2.0464
  214POPC  C21711613   6.128   3.649   4.713 -0.3441  0.3366  0.4422
  214POPC  H17R11614   6.202   3.587   4.657 -1.8724  0.0983 -1.4230
  214POPC  H17S11615   6.102   3.589   4.803  0.9167  1.0111  1.2712
  214POPC  C21811616   6.187   3.777   4.751  0.6475 -0.8321  0.4023
  214POPC  H18R11617   6.103   3.840   4.789  0.9260 -1.0894  1.4763
  214POPC  H18S11618   6.230   3.821   4.659  2.5953  1.4106  2.2293
  214POPC  H18T11619   6.270   3.772   4.825  1.5215 -0.8228 -0.5687
  214POPC   C3311620   5.530   3.019   3.514  0.3336  0.0872  0.6097
  214POPC   H3X11621   5.631   3.039   3.557  0.6212 -0.5109  0.2214
  214POPC   H3Y11622   5.485   2.948   3.587  0.9163 -1.4347 -0.4634
  214POPC   C3411623   5.452   3.154   3.499  0.1149  0.3045 -0.6836
  214POPC   H4X11624   5.351   3.128   3.461  0.5652  1.8112 -3.0943
  214POPC   H4Y11625   5.500   3.215   3.420  1.3475  1.9812  1.2482
  214POPC   C3511626   5.436   3.239   3.625  0.3461  0.5505  0.0868
  214POPC   H5X11627   5.379   3.329   3.593 -0.1530  0.6959  1.3094
  214POPC   H5Y11628   5.537   3.274   3.654  0.8116 -0.3241 -0.4552
  214POPC   C3611629   5.367   3.150   3.731 -0.1708  0.7627 -0.0271
  214POPC   H6X11630   5.422   3.060   3.764 -1.4370  0.4494  1.3838
  214POPC   H6Y11631   5.276   3.119   3.675 -0.5645 -2.1021  1.9618
  214POPC   C3711632   5.330   3.227   3.857 -0.0224 -0.6232  0.2246
  214POPC   H7X11633   5.255   3.173   3.919 -1.8998 -0.1305 -1.4991
  214POPC   H7Y11634   5.275   3.319   3.827 -0.7208 -0.9546  0.4731
  214POPC   C3811635   5.455   3.269   3.929  0.6738  0.5343  0.1131
  214POPC   H8X11636   5.502   3.355   3.875  2.5496  1.7863  3.4514
  214POPC   H8Y11637   5.537   3.194   3.931  2.8967  2.8088  1.8301
  214POPC   C3911638   5.427   3.320   4.067 -0.6509 -0.4065 -0.3438
  214POPC   H9X11639   5.357   3.256   4.125 -0.4795 -0.2480  0.0451
  214POPC   H9Y11640   5.382   3.421   4.073  0.9592  0.3748 -0.8731
  214POPC  C31011641   5.557   3.328   4.143  0.1213  0.2513 -0.1382
  214POPC  H10X11642   5.618   3.415   4.113 -0.4960  1.5086  2.0878
  214POPC  H10Y11643   5.615   3.233   4.134  2.1191  1.5903 -2.4282
  214POPC  C31111644   5.521   3.354   4.294 -0.3006 -0.0690 -0.7317
  214POPC  H11X11645   5.468   3.267   4.339 -1.6736  0.5652 -1.0506
  214POPC  H11Y11646   5.450   3.439   4.297 -0.4731 -0.2323  1.8261
  214POPC  C31211647   5.648   3.387   4.375  0.3198  0.4039  0.5347
  214POPC  H12X11648   5.620   3.458   4.455 -0.1458  1.7501 -0.7927
  214POPC  H12Y11649   5.708   3.441   4.299  1.9703 -2.1759 -0.1403
  214POPC  C31311650   5.730   3.268   4.438  0.3334  0.3903 -0.1048
  214POPC  H13X11651   5.786   3.216   4.357 -1.6062 -0.6400 -0.8347
  214POPC  H13Y11652   5.663   3.199   4.492  0.3539  2.2559  2.4968
  214POPC  C31411653   5.835   3.317   4.534  0.4393 -0.1053 -0.7834
  214POPC  H14X11654   5.793   3.406   4.586 -1.9075 -1.1725 -0.7245
  214POPC  H14Y11655   5.926   3.357   4.484  0.9462  0.7277  0.7464
  214POPC  C31511656   5.901   3.210   4.623  0.5282  0.8377 -0.0610
  214POPC  H15X11657   5.964   3.134   4.571 -0.2763 -1.5310  2.2541
  214POPC  H15Y11658   5.810   3.162   4.664  0.0801  0.8344 -1.0311
  214POPC  C31611659   5.980   3.265   4.740 -0.3409 -0.6227 -0.3361
  214POPC  H16X11660   5.916   3.309   4.820  0.3722  2.7793 -1.4571
  214POPC  H16Y11661   6.040   3.349   4.699 -0.8028 -0.6384 -1.0459
  214POPC  H16Z11662   6.039   3.180   4.780 -0.8658  0.1020  2.2166
  215POPC     N11663   3.073   0.746   2.937  0.4149 -0.4106 -0.0880
  215POPC   C1211664   3.159   0.634   2.987 -1.1274 -0.2456 -0.1652
  215POPC  H12A11665   3.109   0.539   2.982  1.7838 -1.8616 -1.2949
  215POPC  H12B11666   3.185   0.650   3.091  0.2549 -0.8688 -0.3928
  215POPC   C1311667   2.948   0.752   3.026  0.0655  0.7890 -0.2910
  215POPC  H13A11668   2.858   0.799   2.990 -1.1121 -0.3116  1.0949
  215POPC  H13B11669   2.909   0.653   3.046 -1.3985  1.0198 -1.7873
  215POPC  H13C11670   2.977   0.790   3.122 -0.5513  0.5328  0.0014
  215POPC   C1411671   3.139   0.875   2.942 -0.3265 -0.5610  0.9697
  215POPC  H14A11672   3.197   0.893   3.031  1.2518  0.7505 -0.2674
  215POPC  H14B11673   3.208   0.891   2.860 -2.5061 -0.5942 -0.9547
  215POPC  H14C11674   3.069   0.955   2.924  0.6176 -0.0570 -0.7740
  215POPC   C1511675   3.023   0.718   2.801 -0.3505  0.2504  0.3263
  215POPC  H15A11676   2.975   0.622   2.808 -1.1838  0.6024 -0.4040
  215POPC  H15B11677   3.111   0.721   2.738 -0.5665  2.4375  0.0380
  215POPC  H15C11678   2.943   0.781   2.763 -0.1571 -1.2398 -2.9069
  215POPC   C1111679   3.295   0.611   2.909 -0.0151  0.3862 -0.3115
  215POPC  H11A11680   3.255   0.581   2.809  2.0079  1.6804 -1.5947
  215POPC  H11B11681   3.341   0.520   2.953  1.0306  1.3567  0.6390
  215POPC     P11682   3.525   0.710   3.009 -0.2317 -0.1904  0.4739
  215POPC   O1311683   3.579   0.848   3.012 -0.2440 -0.3759 -0.2125
  215POPC   O1411684   3.620   0.598   2.980  0.0682  0.5331  0.3316
  215POPC   O1211685   3.395   0.709   2.903 -0.7543  0.2802 -1.1420
  215POPC   O1111686   3.456   0.695   3.148  0.2002  0.2192 -0.0987
  215POPC    C111687   3.479   0.570   3.222  0.2177 -0.7707 -0.0536
  215POPC    HA11688   3.545   0.497   3.170  0.4196 -0.1082 -0.7372
  215POPC    HB11689   3.386   0.511   3.239  0.0452 -1.0461 -1.8111
  215POPC    C211690   3.560   0.605   3.353  0.5233  0.6055  0.0815
  215POPC    HS11691   3.660   0.643   3.323  0.0911 -0.2674 -2.7575
  215POPC   O2111692   3.572   0.477   3.429  0.0204 -0.1871  0.0474
  215POPC   C2111693   3.693   0.449   3.483 -0.5560 -0.1938  0.2204
  215POPC   O2211694   3.787   0.524   3.483  0.2555 -1.3889 -0.3163
  215POPC   C2211695   3.680   0.321   3.570  0.0915  0.3260  0.3530
  215POPC   H2R11696   3.710   0.238   3.503  0.3777 -0.2786  1.2112
  215POPC   H2S11697   3.571   0.306   3.585 -0.8167  3.3225 -2.1739
  215POPC    C311698   3.485   0.696   3.448 -0.3501  0.2712 -0.1918
  215POPC    HX11699   3.388   0.656   3.484 -0.5741 -1.1587 -2.2541
  215POPC    HY11700   3.463   0.794   3.400 -0.3654 -0.1472 -1.0578
  215POPC   O3111701   3.553   0.712   3.575  0.5858 -0.1753 -0.3679
  215POPC   C3111702   3.658   0.803   3.565  0.1208 -0.3559  0.1063
  215POPC   O3211703   3.686   0.865   3.465  0.0661  0.3983  0.0089
  215POPC   C3211704   3.735   0.819   3.701  0.4617  0.3876 -0.0800
  215POPC   H2X11705   3.708   0.738   3.772  0.9673  1.0605  0.8859
  215POPC   H2Y11706   3.696   0.912   3.748 -0.4229 -0.4225  0.8587
  215POPC   C2311707   3.763   0.305   3.701  0.7571 -0.1202  0.1601
  215POPC   H3R11708   3.871   0.321   3.680  0.8517 -0.6320  0.2427
  215POPC   H3S11709   3.759   0.204   3.747 -0.5375 -0.4362 -0.5862
  215POPC   C2411710   3.719   0.411   3.802 -0.0158  0.2889 -0.0342
  215POPC   H4R11711   3.613   0.380   3.815 -0.1105  1.2314  1.7892
  215POPC   H4S11712   3.720   0.518   3.770  3.7980  0.6517  0.8207
  215POPC   C2511713   3.783   0.398   3.944 -0.7730 -0.0455  0.2706
  215POPC   H5R11714   3.755   0.309   4.004 -0.5917 -0.8559 -0.8198
  215POPC   H5S11715   3.755   0.487   4.004  0.6399  1.1985 -0.8024
  215POPC   C2611716   3.942   0.396   3.942  0.2092  0.3424  0.3609
  215POPC   H6R11717   3.990   0.476   3.882  0.1241  1.3358  1.5620
  215POPC   H6S11718   3.965   0.297   3.897 -0.9218  1.1346 -2.1370
  215POPC   C2711719   4.018   0.413   4.074  0.3223 -0.2102  0.8536
  215POPC   H7R11720   3.994   0.515   4.110  0.1435  0.2900 -0.6243
  215POPC   H7S11721   4.128   0.409   4.059  0.3708 -4.3519  0.9352
  215POPC   C2811722   4.002   0.309   4.187  1.0497  0.2679 -0.2404
  215POPC   H8R11723   4.091   0.330   4.250  1.3938 -1.7601  0.0301
  215POPC   H8S11724   4.020   0.204   4.155 -0.1561  0.3599 -1.2976
  215POPC   C2911725   3.883   0.335   4.281 -0.6561  0.4474 -0.3290
  215POPC   H9111726   3.792   0.280   4.255 -2.4535  1.8469  2.4882
  215POPC  C21011727   3.881   0.418   4.384 -0.8314 -0.2607 -0.7467
  215POPC  H10111728   3.800   0.409   4.457  0.2466 -0.0632  0.5280
  215POPC  C21111729   3.993   0.506   4.445  1.4778  0.6838  0.7719
  215POPC  H11R11730   3.965   0.612   4.429 -0.6612 -0.2376 -2.6708
  215POPC  H11S11731   4.092   0.494   4.394  1.5975  2.6383  0.4650
  215POPC  C21211732   3.983   0.466   4.593 -0.1104 -0.3762 -0.1434
  215POPC  H12R11733   4.025   0.365   4.609 -0.1419 -0.3331  0.2342
  215POPC  H12S11734   3.887   0.471   4.649  0.6640  1.6391  1.1328
  215POPC  C21311735   4.062   0.583   4.664  0.2300 -0.0103 -0.0967
  215POPC  H13R11736   4.019   0.684   4.650 -0.2451 -0.1640  0.2175
  215POPC  H13S11737   4.163   0.586   4.619 -0.1093 -0.1181 -0.8854
  215POPC  C21411738   4.069   0.554   4.815 -0.2123  0.1771  0.8705
  215POPC  H14R11739   4.088   0.445   4.818 -0.1500  0.1650  0.1694
  215POPC  H14S11740   3.971   0.577   4.862 -1.4378  2.0834 -2.2741
  215POPC  C21511741   4.173   0.635   4.888 -0.2014 -0.1485  0.2253
  215POPC  H15R11742   4.155   0.742   4.863 -0.0489 -0.6289 -2.1380
  215POPC  H15S11743   4.272   0.614   4.842  0.4506 -0.0831  1.5303
  215POPC  C21611744   4.181   0.606   5.037 -0.0598 -0.5375  0.9138
  215POPC  H16R11745   4.080   0.615   5.082  0.2874 -1.7951  2.0197
  215POPC  H16S11746   4.242   0.677   5.097  4.5435 -2.1464 -1.3727
  215POPC  C21711747   4.221   0.471   5.082 -0.1737  0.0962 -0.2874
  215POPC  H17R11748   4.324   0.441   5.053 -0.1440 -1.8688  1.6611
  215POPC  H17S11749   4.144   0.394   5.063  0.3809 -0.6622  0.4965
  215POPC  C21811750   4.218   0.477   5.239 -1.0062  0.2149  0.3695
  215POPC  H18R11751   4.115   0.504   5.272 -0.2457  3.0141  0.7014
  215POPC  H18S11752   4.284   0.559   5.274 -1.0025  0.4403 -0.1612
  215POPC  H18T11753   4.254   0.380   5.279 -2.4305 -1.5480 -2.2638
  215POPC   C3311754   3.886   0.809   3.689  0.3955  0.5429  0.0957
  215POPC   H3X11755   3.943   0.900   3.660 -1.5175  1.3721 -1.2406
  215POPC   H3Y11756   3.929   0.742   3.611  1.1014  1.0319  0.0492
  215POPC   C3411757   3.944   0.767   3.823  0.3674 -0.6109  0.1894
  215POPC   H4X11758   4.050   0.744   3.800  0.7044 -1.0646  2.0016
  215POPC   H4Y11759   3.904   0.675   3.872 -1.0633 -0.1353 -0.0434
  215POPC   C3511760   3.954   0.879   3.929  0.2964 -0.1248 -0.5866
  215POPC   H5X11761   3.847   0.905   3.948  0.1068 -0.3818 -1.2828
  215POPC   H5Y11762   3.999   0.973   3.892 -1.7492  1.6869  1.1919
  215POPC   C3611763   4.031   0.834   4.047  0.4710  0.3928 -0.6581
  215POPC   H6X11764   4.135   0.813   4.012  0.9648  0.7121  0.5802
  215POPC   H6Y11765   3.995   0.737   4.087  2.3952  0.2667  0.8929
  215POPC   C3711766   4.033   0.935   4.158 -0.2191  0.4260  0.0308
  215POPC   H7X11767   3.935   0.985   4.178 -0.4146 -0.3195  1.0283
  215POPC   H7Y11768   4.100   1.020   4.132 -0.9433  1.8563  2.4985
  215POPC   C3811769   4.081   0.886   4.301 -0.1462 -0.0040  0.3756
  215POPC   H8X11770   4.191   0.872   4.289  0.0987  2.4067 -0.8124
  215POPC   H8Y11771   4.028   0.790   4.312 -1.1385  0.3333 -1.1586
  215POPC   C3911772   4.062   0.989   4.413 -0.0303 -0.1895  0.2903
  215POPC   H9X11773   3.951   0.997   4.420  0.1102  1.5113  1.0569
  215POPC   H9Y11774   4.097   1.087   4.374  0.3641 -0.8856 -1.1818
  215POPC  C31011775   4.140   0.958   4.542 -0.0227 -0.1252  0.8759
  215POPC  H10X11776   4.247   0.965   4.512 -0.4156  2.5348 -0.2439
  215POPC  H10Y11777   4.126   0.853   4.575 -1.9030  0.6746  2.8778
  215POPC  C31111778   4.093   1.061   4.645 -0.0451 -0.0628  0.5514
  215POPC  H11X11779   3.982   1.050   4.653 -0.1402 -0.8941 -1.2731
  215POPC  H11Y11780   4.118   1.157   4.595  0.6145 -1.2574 -1.5599
  215POPC  C31211781   4.148   1.038   4.786  0.1807  0.3400  1.0482
  215POPC  H12X11782   4.256   1.026   4.763 -0.6954 -2.6121 -2.5547
  215POPC  H12Y11783   4.102   0.950   4.837 -0.8618  2.0310  3.2043
  215POPC  C31311784   4.121   1.154   4.888  0.0734  0.2783 -0.2496
  215POPC  H13X11785   4.013   1.175   4.902 -0.0664 -0.6932  0.1838
  215POPC  H13Y11786   4.191   1.234   4.856 -1.4207  1.9527  0.4868
  215POPC  C31411787   4.156   1.130   5.043  0.8065  0.4241 -0.0922
  215POPC  H14X11788   4.109   1.213   5.099 -1.7319 -0.7903 -0.2891
  215POPC  H14Y11789   4.267   1.129   5.054  0.7806  0.4029  0.1794
  215POPC  C31511790   4.093   1.002   5.100 -0.3280  0.0555  0.1517
  215POPC  H15X11791   4.103   0.913   5.034 -0.0066  0.2351 -0.0373
  215POPC  H15Y11792   3.986   1.024   5.123 -0.5941 -0.8625 -0.1240
  215POPC  C31611793   4.144   0.953   5.243 -0.2072  0.5529  0.4278
  215POPC  H16X11794   4.240   0.898   5.230 -2.0753 -2.3705 -2.4797
  215POPC  H16Y11795   4.079   0.874   5.285 -0.9560  0.9143 -0.0463
  215POPC  H16Z11796   4.130   1.033   5.320 -1.0545  0.7312  0.0910
  216POPC     N11797   1.727   5.924   3.126  0.1042 -0.0366  0.3291
  216POPC   C1211798   1.728   6.065   3.189 -0.2985 -0.1079 -0.5212
  216POPC  H12A11799   1.668   6.137   3.135  0.6120  1.4386  0.4643
  216POPC  H12B11800   1.828   6.101   3.171 -0.5252  0.9530  0.2024
  216POPC   C1311801   1.757   5.925   2.980 -0.1343 -0.7377 -0.1685
  216POPC  H13A11802   1.677   5.980   2.932 -0.5485 -1.1019  0.0983
  216POPC  H13B11803   1.850   5.977   2.965  0.5255 -2.1578 -1.2572
  216POPC  H13C11804   1.746   5.827   2.936 -0.0863  0.2376 -2.4920
  216POPC   C1411805   1.827   5.830   3.191  0.2382  0.1398 -1.0221
  216POPC  H14A11806   1.929   5.865   3.187  0.8518 -1.5509 -1.0217
  216POPC  H14B11807   1.807   5.820   3.296  3.7924  1.4299 -0.0750
  216POPC  H14C11808   1.835   5.729   3.153  2.3053 -1.5800  3.3593
  216POPC   C1511809   1.596   5.852   3.134  0.3308 -0.8688  0.0680
  216POPC  H15A11810   1.579   5.826   3.238 -0.3924 -2.4918 -0.4166
  216POPC  H15B11811   1.597   5.763   3.073 -0.3561 -0.4607 -0.5485
  216POPC  H15C11812   1.517   5.906   3.085  0.8550 -0.4336 -0.3029
  216POPC   C1111813   1.715   6.078   3.344 -0.1367 -0.2205 -0.3843
  216POPC  H11A11814   1.788   6.002   3.379  3.3097  2.9276 -0.0897
  216POPC  H11B11815   1.615   6.048   3.381 -0.5143  2.5932  1.1329
  216POPC     P11816   1.892   6.264   3.413 -0.2270  0.0439 -0.3277
  216POPC   O1311817   1.884   6.410   3.436  0.0148 -0.4212 -0.8139
  216POPC   O1411818   1.984   6.211   3.309  0.3181  0.1822 -0.0869
  216POPC   O1211819   1.747   6.213   3.385  0.0031  0.6909  0.1027
  216POPC   O1111820   1.934   6.196   3.554 -0.1105 -1.0500 -0.7380
  216POPC    C111821   1.842   6.206   3.662 -0.4667  0.6626 -0.4654
  216POPC    HA11822   1.742   6.170   3.629 -1.6396  0.7475  2.6919
  216POPC    HB11823   1.831   6.306   3.709  2.0660  0.1944  1.3272
  216POPC    C211824   1.881   6.116   3.777  0.7924 -0.5116  0.3670
  216POPC    HS11825   1.908   6.016   3.737 -0.3167 -0.6650 -0.0309
  216POPC   O2111826   1.769   6.123   3.864 -0.1262  0.7098 -0.3602
  216POPC   C2111827   1.745   6.000   3.926 -0.0282 -0.1870 -0.7797
  216POPC   O2211828   1.809   5.899   3.905 -0.6845 -0.7351  0.3179
  216POPC   C2211829   1.647   6.004   4.039  0.0850  1.1641  0.1848
  216POPC   H2R11830   1.677   5.919   4.104  2.4807  1.2817 -0.6699
  216POPC   H2S11831   1.545   5.998   3.997  0.2054  0.4147 -0.0163
  216POPC    C311832   2.011   6.168   3.850 -0.2471  0.2816 -0.2639
  216POPC    HX11833   1.975   6.250   3.917 -1.2468 -1.2319  1.1322
  216POPC    HY11834   2.083   6.210   3.776  0.3958  1.6305  1.0688
  216POPC   O3111835   2.060   6.071   3.945  0.8522 -0.1177 -0.2606
  216POPC   C3111836   2.102   5.961   3.896  0.1806 -0.5196  0.5628
  216POPC   O3211837   2.118   5.935   3.776  0.0382  0.1603  0.8146
  216POPC   C3211838   2.133   5.871   4.020  0.1568 -0.2319 -0.2218
  216POPC   H2X11839   2.036   5.868   4.074 -0.3917  1.5616 -1.0093
  216POPC   H2Y11840   2.215   5.920   4.078  1.4289 -0.5585 -1.6705
  216POPC   C2311841   1.644   6.140   4.130 -0.6907 -0.1373 -0.2613
  216POPC   H3R11842   1.572   6.206   4.077 -1.1404 -1.7291 -1.7317
  216POPC   H3S11843   1.748   6.177   4.131 -0.5555 -0.4834  1.3822
  216POPC   C2411844   1.608   6.105   4.264  1.3629 -0.2301 -0.3916
  216POPC   H4R11845   1.672   6.018   4.293 -0.0881 -1.7169 -1.4302
  216POPC   H4S11846   1.501   6.075   4.257  1.1759  0.3518 -0.0492
  216POPC   C2511847   1.623   6.210   4.376 -0.1329 -0.4704  0.0877
  216POPC   H5R11848   1.566   6.301   4.349 -0.8344 -1.6226 -2.6178
  216POPC   H5S11849   1.729   6.237   4.391 -0.4140  0.0861  1.1725
  216POPC   C2611850   1.576   6.142   4.501 -0.2381  0.0376  0.5014
  216POPC   H6R11851   1.638   6.052   4.524 -0.9160 -0.2166  1.3788
  216POPC   H6S11852   1.471   6.110   4.487 -0.0457 -0.4587  0.1573
  216POPC   C2711853   1.588   6.231   4.624 -0.5169 -0.1276  0.0853
  216POPC   H7R11854   1.696   6.251   4.643 -0.6846 -0.5728  1.6957
  216POPC   H7S11855   1.548   6.173   4.711  1.1996  3.3220  3.4878
  216POPC   C2811856   1.504   6.363   4.619  0.2143 -0.0774  0.0323
  216POPC   H8R11857   1.394   6.348   4.612  0.1468  0.4678 -0.1611
  216POPC   H8S11858   1.522   6.420   4.526 -0.0182  0.7989  0.5095
  216POPC   C2911859   1.530   0.005   4.741  0.4852  0.2183  0.1415
  216POPC   H9111860   1.626   0.059   4.744  0.1688  0.8393  3.9597
  216POPC  C21011861   1.451   0.037   4.849  0.5101  0.4994  0.2154
  216POPC  H10111862   1.488   0.116   4.916  0.8948  0.7200 -0.2408
  216POPC  C21111863   1.317   6.418   4.873  0.5052  0.0405 -0.1038
  216POPC  H11R11864   1.287   6.427   4.980 -2.2974 -0.3456 -0.8018
  216POPC  H11S11865   1.328   6.311   4.844 -0.4634  0.3031 -1.5291
  216POPC  C21211866   1.202   0.043   4.791  0.9210 -0.1395 -0.0927
  216POPC  H12R11867   1.225   0.036   4.683 -0.7556 -2.5587 -0.3666
  216POPC  H12S11868   1.196   0.149   4.823 -0.2026 -0.1647 -0.1885
  216POPC  C21311869   1.069   6.414   4.835  0.0808 -0.7827 -0.2952
  216POPC  H13R11870   1.052   6.432   4.944  2.1713  0.1227 -0.0846
  216POPC  H13S11871   1.071   6.303   4.831  1.2583 -0.7746 -0.1209
  216POPC  C21411872   0.938   0.022   4.768  0.0989  0.1015  0.0681
  216POPC  H14R11873   0.962  -0.001   4.662  2.1793  2.2773 -0.0082
  216POPC  H14S11874   0.943   0.129   4.795 -0.1970  0.1683 -0.1369
  216POPC  C21511875   0.815   6.387   4.817  0.2024  0.5317  0.2408
  216POPC  H15R11876   0.813   6.369   4.927  1.2850  0.9591  0.3449
  216POPC  H15S11877   0.838   6.288   4.772  0.3243  0.9001 -0.5160
  216POPC  C21611878   0.686   6.443   4.761  0.0194  0.4531  0.2963
  216POPC  H16R11879   0.621   6.359   4.729  1.9470 -0.6708 -0.8105
  216POPC  H16S11880   0.696   6.497   4.665 -0.6560  0.3264  0.1497
  216POPC  C21711881   0.597   0.083   4.856  0.0120  0.1139 -0.9572
  216POPC  H17R11882   0.649   0.165   4.911 -0.1935 -0.1460 -0.3735
  216POPC  H17S11883   0.548   0.030   4.940  1.4247  0.0398 -0.1624
  216POPC  C21811884   0.481   0.156   4.784 -1.0205  0.1803  0.4347
  216POPC  H18R11885   0.412   0.087   4.731 -0.1194  0.8027 -1.6600
  216POPC  H18S11886   0.537   0.216   4.709  1.0334 -1.5996  0.4453
  216POPC  H18T11887   0.438   0.231   4.854  1.2884  2.7105 -0.6620
  216POPC   C3311888   2.195   5.730   3.993  0.1850 -0.4325  0.2515
  216POPC   H3X11889   2.289   5.742   3.935  0.6481 -2.7084  0.4071
  216POPC   H3Y11890   2.123   5.669   3.933 -2.1239  3.2805 -1.0959
  216POPC   C3411891   2.219   5.630   4.112  0.1970  0.6615  0.0261
  216POPC   H4X11892   2.254   5.537   4.064  1.3092  1.7144 -1.2956
  216POPC   H4Y11893   2.119   5.610   4.156 -0.1626 -1.1053 -1.5109
  216POPC   C3511894   2.333   5.666   4.204  0.3046  0.0259 -0.3517
  216POPC   H5X11895   2.318   5.769   4.245  0.2225 -1.2464  3.1769
  216POPC   H5Y11896   2.433   5.655   4.157  1.1350  0.3864  1.2566
  216POPC   C3611897   2.317   5.571   4.334 -0.8086 -0.0036 -0.1175
  216POPC   H6X11898   2.321   5.461   4.318 -1.3374 -0.2059  1.0060
  216POPC   H6Y11899   2.229   5.598   4.396 -0.1123  0.3754  0.7344
  216POPC   C3711900   2.445   5.605   4.407 -0.4870 -0.0051 -0.4000
  216POPC   H7X11901   2.452   5.711   4.439  0.2170  0.1407 -1.0049
  216POPC   H7Y11902   2.532   5.585   4.341  0.3117 -1.1400  0.9386
  216POPC   C3811903   2.472   5.518   4.524  0.1018 -0.1376 -1.1041
  216POPC   H8X11904   2.472   5.409   4.499  4.8461 -0.2351 -1.7645
  216POPC   H8Y11905   2.389   5.535   4.595  1.0612 -0.0009  0.0232
  216POPC   C3911906   2.611   5.556   4.589 -0.4709 -0.0754 -0.1618
  216POPC   H9X11907   2.600   5.592   4.693 -0.2518  1.5069 -0.6640
  216POPC   H9Y11908   2.655   5.648   4.545  0.8101 -1.3655 -1.7286
  216POPC  C31011909   2.714   5.447   4.568  0.2850  0.1071 -1.3160
  216POPC  H10X11910   2.742   5.446   4.461  1.0275 -2.8912 -1.1986
  216POPC  H10Y11911   2.675   5.346   4.593 -1.0368  0.9256  0.1362
  216POPC  C31111912   2.853   5.450   4.641  0.7072 -0.3686  0.1763
  216POPC  H11X11913   2.848   5.409   4.744 -3.3650 -0.8658 -0.0683
  216POPC  H11Y11914   2.899   5.551   4.632 -0.6483  0.2558  0.1321
  216POPC  C31211915   2.954   5.370   4.557 -0.1532 -0.2683  0.2456
  216POPC  H12X11916   2.964   5.424   4.460 -1.7541 -1.7318 -0.7812
  216POPC  H12Y11917   2.912   5.273   4.522 -1.0497  0.7171 -1.5605
  216POPC  C31311918   3.086   5.367   4.630 -1.0446  0.4342 -0.1366
  216POPC  H13X11919   3.065   5.334   4.734  0.9448  0.3439  0.2679
  216POPC  H13Y11920   3.129   5.469   4.632 -0.5940  0.2351  0.6352
  216POPC  C31411921   3.191   5.274   4.557  0.8982  0.4283  0.0633
  216POPC  H14X11922   3.153   5.172   4.536 -0.3557  0.9486 -0.3029
  216POPC  H14Y11923   3.275   5.267   4.629  0.6571  0.6111  0.3680
  216POPC  C31511924   3.234   5.329   4.422  0.2143  1.0592 -0.3055
  216POPC  H15X11925   3.258   5.436   4.439  0.0189  0.9259  0.9219
  216POPC  H15Y11926   3.154   5.327   4.345  0.5208 -2.0275 -0.6651
  216POPC  C31611927   3.355   5.256   4.362 -0.1850 -0.2082 -0.6844
  216POPC  H16X11928   3.426   5.327   4.316  0.4025  0.4629  1.1808
  216POPC  H16Y11929   3.331   5.180   4.285  2.0216  0.0180 -1.6488
  216POPC  H16Z11930   3.409   5.206   4.445 -0.8667  0.4072  0.1546
  217POPC     N11931   0.647   0.175   2.424 -0.1418 -0.8771  0.2315
  217POPC   C1211932   0.612   6.479   2.382  0.1204  0.7899  0.5137
  217POPC  H12A11933   0.626   6.409   2.463  0.0484  0.8604  0.5888
  217POPC  H12B11934   0.667   6.443   2.297  0.9721  1.0462  0.9427
  217POPC   C1311935   0.797   0.191   2.426 -0.8655  0.1292 -0.1672
  217POPC  H13A11936   0.838   0.132   2.507  2.1829  1.3434 -0.6609
  217POPC  H13B11937   0.845   0.164   2.333  3.3068 -2.1617  2.2899
  217POPC  H13C11938   0.818   0.296   2.444 -1.6480  0.5590 -1.6121
  217POPC   C1411939   0.598   0.276   2.321  0.5756 -0.5455 -0.3134
  217POPC  H14A11940   0.619   0.377   2.355  1.4234 -0.9233  0.3112
  217POPC  H14B11941   0.652   0.265   2.228 -0.7258 -0.6925 -1.0779
  217POPC  H14C11942   0.491   0.269   2.307  0.5429 -0.3773 -0.1645
  217POPC   C1511943   0.584   0.208   2.551  0.6845 -0.1863 -0.4866
  217POPC  H15A11944   0.477   0.197   2.536  0.4854 -0.0549  0.7200
  217POPC  H15B11945   0.607   0.312   2.573 -1.5446  0.1345  0.6521
  217POPC  H15C11946   0.634   0.150   2.627 -2.0772 -1.8148  0.2400
  217POPC   C1111947   0.462   0.012   2.342  0.5626  0.5547 -0.3733
  217POPC  H11A11948   0.462  -0.087   2.291  1.5450  0.6667 -0.6185
  217POPC  H11B11949   0.433   0.075   2.256 -1.5061  0.2956  0.0978
  217POPC     P11950   0.369   6.380   2.573 -0.0075 -0.1865 -0.1284
  217POPC   O1311951   0.503   6.331   2.601 -0.0779  0.9458 -0.1447
  217POPC   O1411952   0.259   6.289   2.548 -0.1460 -0.0049 -0.3338
  217POPC   O1211953   0.372   0.026   2.451  0.2357  0.4530  0.5379
  217POPC   O1111954   0.330   0.044   2.683  0.3582  0.2691 -0.3619
  217POPC    C111955   0.202   0.069   2.730  0.6136  0.2461  0.4558
  217POPC    HA11956   0.178  -0.014   2.800  0.0330 -0.9588 -1.0876
  217POPC    HB11957   0.125   0.063   2.650  0.0715  1.0975  0.9069
  217POPC    C211958   0.194   0.208   2.808 -0.2254 -0.3045 -0.4704
  217POPC    HS11959   0.213   0.289   2.734 -1.5669  1.4218  0.9933
  217POPC   O2111960   0.288   0.212   2.915 -0.0394 -0.0121  0.6408
  217POPC   C2111961   0.317   0.340   2.947  0.0468  0.4005 -0.4227
  217POPC   O2211962   0.292   0.436   2.877  0.2790  0.0880 -0.0068
  217POPC   C2211963   0.385   0.351   3.083 -0.0416  0.2575  0.2701
  217POPC   H2R11964   0.481   0.407   3.071  0.1054 -0.0758 -0.1715
  217POPC   H2S11965   0.406   0.247   3.116  0.4111 -0.1981 -1.3549
  217POPC    C311966   0.050   0.248   2.867 -0.8849 -0.2681  0.5385
  217POPC    HX11967  -0.014   0.285   2.784  0.7122  3.7183  0.8672
  217POPC    HY11968   0.059   0.343   2.925 -1.5841 -1.4388  2.6708
  217POPC   O3111969   6.436   0.147   2.959 -0.6446 -0.4890  0.0817
  217POPC   C3111970   6.360   0.065   2.895 -0.4576 -0.2727  0.4796
  217POPC   O3211971   6.337   0.065   2.775  0.3143 -0.0514  0.2659
  217POPC   C3211972   6.278   6.428   2.992 -0.6543 -0.5128 -0.7627
  217POPC   H2X11973   6.223   6.498   3.060 -0.1841 -0.3348 -0.5615
  217POPC   H2Y11974   6.356   6.366   3.041 -0.9030 -1.4191 -1.5041
  217POPC   C2311975   0.287   0.420   3.186  0.0030 -0.8929 -0.0890
  217POPC   H3R11976   0.243   0.505   3.129  1.7944  0.1353 -0.0149
  217POPC   H3S11977   0.347   0.456   3.272 -1.3959  1.6271 -0.0791
  217POPC   C2411978   0.184   0.326   3.246 -0.3938 -0.0197 -0.2227
  217POPC   H4R11979   0.234   0.235   3.286 -1.0178 -0.5749 -0.6862
  217POPC   H4S11980   0.109   0.309   3.167  0.7606  2.3207 -1.9242
  217POPC   C2511981   0.134   0.377   3.381  0.4084  0.2438  0.2743
  217POPC   H5R11982   0.055   0.449   3.349 -0.6536 -1.5234 -1.3531
  217POPC   H5S11983   0.213   0.437   3.431 -0.1628  1.6954 -0.4940
  217POPC   C2611984   0.078   0.257   3.456  0.6005  0.6860 -0.7360
  217POPC   H6R11985   0.029   0.306   3.543  0.7302  1.3330 -1.0201
  217POPC   H6S11986   0.163   0.200   3.499  1.4826  1.0736 -1.9340
  217POPC   C2711987   6.431   0.169   3.376 -0.0578  0.8321  0.3907
  217POPC   H7R11988   6.489   0.088   3.326  0.5049  0.8454  1.0066
  217POPC   H7S11989   6.378   0.229   3.299  0.7587  0.6881 -0.3036
  217POPC   C2811990   6.325   0.095   3.466 -0.3896 -0.8630  0.0656
  217POPC   H8R11991   6.276   0.170   3.531 -0.1283 -1.5766  1.1031
  217POPC   H8S11992   6.377   0.040   3.548  1.5272  1.2304  0.3533
  217POPC   C2911993   6.223   0.015   3.383  0.0178 -0.2370  0.1268
  217POPC   H9111994   6.244   0.012   3.275 -1.9164 -1.7279 -0.2649
  217POPC  C21011995   6.126   6.385   3.432 -0.5772  0.0257 -0.3504
  217POPC  H10111996   6.039   6.366   3.367 -0.4354  0.5941 -0.7217
  217POPC  C21111997   6.090   6.375   3.581 -0.0968  0.0452  0.4752
  217POPC  H11R11998   6.172   6.408   3.648 -1.1214  0.3529  1.6210
  217POPC  H11S11999   6.070   6.268   3.606  0.6623 -0.2259 -0.0643
  217POPC  C21212000   5.952   0.001   3.616 -0.3761 -0.9305  0.5634
  217POPC  H12R12001   5.882  -0.051   3.547 -0.9229  1.7281 -0.9922
  217POPC  H12S12002   5.964   0.105   3.580 -1.0814 -1.3645 -1.0187
  217POPC  C21312003   5.914   6.420   3.761  0.4674  0.2851 -0.4447
  217POPC  H13R12004   5.967   6.483   3.835  0.1396 -0.6238  0.5924
  217POPC  H13S12005   5.922   6.312   3.783 -0.5187  0.0772 -1.0282
  217POPC  C21412006   5.774   0.001   3.802  0.3564  0.6035 -0.1382
  217POPC  H14R12007   5.710  -0.065   3.740 -1.7512  2.8109 -0.4702
  217POPC  H14S12008   5.732   0.104   3.799 -0.4863  0.3307  1.0801
  217POPC  C21512009   5.748   6.402   3.947  0.2540  0.1114 -1.1326
  217POPC  H15R12010   5.827   6.446   4.012  0.8677 -0.7882 -1.2502
  217POPC  H15S12011   5.763   6.294   3.967 -1.6384 -0.2716 -1.5657
  217POPC  C21612012   5.608   0.003   4.003  0.3897 -0.3045  0.7054
  217POPC  H16R12013   5.544  -0.044   3.926  2.6884 -0.5670 -1.1553
  217POPC  H16S12014   5.592   0.112   3.985  0.3648 -0.8968 -3.7626
  217POPC  C21712015   5.566   6.402   4.143 -0.3640  0.4106 -0.3806
  217POPC  H17R12016   5.542   6.293   4.143 -0.8701  0.5147  0.0240
  217POPC  H17S12017   5.477   6.457   4.181  1.5432  1.5058  2.8919
  217POPC  C21812018   5.670   6.421   4.257 -0.4270  1.1668  0.0807
  217POPC  H18R12019   5.684   6.531   4.267  1.0170  1.2150 -1.9513
  217POPC  H18S12020   5.770   6.376   4.240 -1.2168 -0.7724  0.3272
  217POPC  H18T12021   5.631   6.375   4.350 -0.1353  2.5224  0.9108
  217POPC   C3312022   6.169   6.334   2.943  0.2087 -0.7776 -0.8660
  217POPC   H3X12023   6.210   6.266   2.865 -0.3204 -0.5533 -1.3489
  217POPC   H3Y12024   6.091   6.401   2.903  2.1491  2.1149 -0.0681
  217POPC   C3412025   6.087   6.255   3.045 -0.8487  0.0571 -0.0881
  217POPC   H4X12026   6.000   6.217   2.987 -0.8321 -1.3117  0.7386
  217POPC   H4Y12027   6.065   6.319   3.132 -0.3783 -0.9846  0.8232
  217POPC   C3512028   6.161   6.139   3.110 -0.3100  1.4881 -0.0486
  217POPC   H5X12029   6.239   6.181   3.178 -0.1105 -0.6594  1.1266
  217POPC   H5Y12030   6.206   6.068   3.037 -0.4395  3.2566 -1.9405
  217POPC   C3612031   6.069   6.053   3.201 -0.0164 -0.0160  0.5718
  217POPC   H6X12032   6.007   5.989   3.135 -0.0090 -1.0066  1.4987
  217POPC   H6Y12033   5.999   6.129   3.241  2.6731  2.9916 -0.0531
  217POPC   C3712034   6.137   5.978   3.312 -0.0181 -0.6936 -0.2281
  217POPC   H7X12035   6.054   5.947   3.379  1.0844 -2.1045  0.5202
  217POPC   H7Y12036   6.200   6.050   3.368  1.7179  0.0412 -2.9372
  217POPC   C3812037   6.235   5.867   3.277 -0.2739 -0.3889  0.7092
  217POPC   H8X12038   6.287   5.899   3.183 -3.5902 -0.4526 -1.3079
  217POPC   H8Y12039   6.180   5.775   3.250  0.5199 -0.3325 -1.3388
  217POPC   C3912040   6.325   5.817   3.388 -0.0158  0.4367  0.0438
  217POPC   H9X12041   6.374   5.899   3.445 -2.8948  0.6497  2.4677
  217POPC   H9Y12042   6.414   5.765   3.346  0.8504  1.3624  0.7018
  217POPC  C31012043   6.248   5.737   3.491  0.2097 -0.6455 -0.2523
  217POPC  H10X12044   6.247   5.630   3.460  0.7330 -0.7579  0.1031
  217POPC  H10Y12045   6.146   5.779   3.499 -0.6967 -2.3366 -1.9502
  217POPC  C31112046   6.294   5.757   3.636  0.4946 -0.2403 -0.5004
  217POPC  H11X12047   6.301   5.865   3.660  1.5377 -0.6909  1.4627
  217POPC  H11Y12048   6.400   5.722   3.640  0.8768  0.8888  2.9418
  217POPC  C31212049   6.213   5.680   3.738 -0.0447  0.7984  0.5411
  217POPC  H12X12050   6.199   5.573   3.712 -3.4767  0.8993  1.5451
  217POPC  H12Y12051   6.105   5.706   3.735 -0.3041 -0.3051 -0.1282
  217POPC  C31312052   6.272   5.697   3.877 -0.4064 -0.7437 -0.5141
  217POPC  H13X12053   6.285   5.805   3.902  1.1600 -1.2414  1.0042
  217POPC  H13Y12054   6.370   5.644   3.878 -0.1845 -0.4556  2.5343
  217POPC  C31412055   6.186   5.628   3.980 -0.4818 -0.0698  0.1376
  217POPC  H14X12056   6.149   5.529   3.949 -0.7971  0.1268 -0.1212
  217POPC  H14Y12057   6.099   5.696   3.990  1.4254  2.8993 -1.8097
  217POPC  C31512058   6.261   5.601   4.107  1.1142  0.1906 -0.2234
  217POPC  H15X12059   6.362   5.560   4.088  1.1589  0.2888 -0.1984
  217POPC  H15Y12060   6.202   5.524   4.162 -0.6061 -0.3590 -2.6907
  217POPC  C31612061   6.273   5.730   4.184  0.7648 -0.3782 -0.4530
  217POPC  H16X12062   6.339   5.715   4.272 -0.0675  2.3756  0.7357
  217POPC  H16Y12063   6.176   5.777   4.211  0.9491  0.6376 -1.4557
  217POPC  H16Z12064   6.330   5.808   4.129  1.5200 -0.0669  0.7341
  218POPC     N12065   5.745   1.470   2.409 -0.5001 -0.0205  0.6106
  218POPC   C1212066   5.826   1.356   2.478  0.2927  0.3312 -0.5109
  218POPC  H12A12067   5.925   1.394   2.496  0.3112  0.6464 -1.2462
  218POPC  H12B12068   5.825   1.273   2.409  2.2718 -2.5633  2.5971
  218POPC   C1312069   5.796   1.485   2.265 -0.2720 -0.4057 -0.2861
  218POPC  H13A12070   5.766   1.580   2.223  1.9116 -0.0270 -1.1357
  218POPC  H13B12071   5.902   1.469   2.249 -0.1089  2.5384 -3.2730
  218POPC  H13C12072   5.760   1.412   2.194  0.3320  0.0343 -1.0591
  218POPC   C1412073   5.599   1.438   2.388  0.2733  0.0816  0.3489
  218POPC  H14A12074   5.554   1.514   2.326  2.7691  2.7025  1.5197
  218POPC  H14B12075   5.587   1.341   2.342  1.4251  0.3601 -0.5946
  218POPC  H14C12076   5.558   1.434   2.488  0.1446  2.6844  0.4754
  218POPC   C1512077   5.758   1.596   2.488  0.5298 -0.5900  0.4407
  218POPC  H15A12078   5.860   1.629   2.481  0.0202  1.3095  1.1502
  218POPC  H15B12079   5.731   1.572   2.590 -0.2597  0.4806  0.5019
  218POPC  H15C12080   5.691   1.677   2.460  0.9136 -0.7603 -1.0476
  218POPC   C1112081   5.776   1.308   2.616 -0.5545 -0.3586 -0.0193
  218POPC  H11A12082   5.743   1.397   2.674  1.5414 -0.2563  1.1230
  218POPC  H11B12083   5.860   1.260   2.670  0.2510 -1.7415 -2.3637
  218POPC     P12084   5.708   1.066   2.580  0.6801  0.3195 -0.5223
  218POPC   O1312085   5.817   1.045   2.477  0.7611 -0.2390 -0.2161
  218POPC   O1412086   5.584   0.996   2.549  0.2027 -0.4491  0.6713
  218POPC   O1212087   5.666   1.221   2.594 -0.5542  0.1739 -0.3987
  218POPC   O1112088   5.763   1.015   2.722  0.4608  0.5101 -0.1538
  218POPC    C112089   5.666   0.982   2.823  0.4245 -0.2586 -1.1194
  218POPC    HA12090   5.713   0.903   2.886 -2.1229 -0.4717  0.6903
  218POPC    HB12091   5.566   0.943   2.795 -0.8171  2.4906 -0.9425
  218POPC    C212092   5.631   1.114   2.908 -0.0376 -0.3172  0.3131
  218POPC    HS12093   5.573   1.182   2.842 -0.6908 -1.6055 -0.4691
  218POPC   O2112094   5.757   1.173   2.956  0.3775 -0.1635  0.2994
  218POPC   C2112095   5.755   1.303   2.979  0.0227 -0.0496 -0.3397
  218POPC   O2212096   5.665   1.383   2.961 -0.0080  0.4050 -0.4710
  218POPC   C2212097   5.896   1.350   3.035 -0.0198  0.0905  0.2425
  218POPC   H2R12098   5.962   1.337   2.947 -1.0743 -3.0727 -0.2141
  218POPC   H2S12099   5.916   1.278   3.118 -2.2208  1.7294  2.3141
  218POPC    C312100   5.538   1.083   3.030 -0.5117  0.4818 -0.4032
  218POPC    HX12101   5.589   1.013   3.100 -0.7546  0.0412 -0.6685
  218POPC    HY12102   5.458   1.015   2.995  0.4651 -1.8971  1.6325
  218POPC   O3112103   5.500   1.200   3.108  0.2368 -0.8846 -0.9008
  218POPC   C3112104   5.392   1.268   3.052 -0.2391  0.7167  0.6747
  218POPC   O3212105   5.318   1.218   2.963 -0.0388 -0.5204  0.1901
  218POPC   C3212106   5.366   1.403   3.112  0.6148  0.1356  0.4624
  218POPC   H2X12107   5.269   1.439   3.072 -1.8953 -2.7221  3.4254
  218POPC   H2Y12108   5.449   1.473   3.087  2.2815 -1.4079  1.4278
  218POPC   C2312109   5.913   1.498   3.089  0.1346  0.4099  0.7291
  218POPC   H3R12110   5.833   1.561   3.044  0.5190 -0.5339 -1.3624
  218POPC   H3S12111   6.012   1.539   3.061 -0.0613 -0.2432 -1.0538
  218POPC   C2412112   5.881   1.511   3.236 -0.4358 -0.4734 -0.3477
  218POPC   H4R12113   5.776   1.476   3.239 -0.2898 -0.8402  1.8528
  218POPC   H4S12114   5.867   1.616   3.269 -2.5696 -0.7079 -0.3858
  218POPC   C2512115   5.961   1.433   3.337  0.2076 -0.4485 -0.5319
  218POPC   H5R12116   6.067   1.467   3.341  0.5960 -1.7091  1.5247
  218POPC   H5S12117   5.962   1.325   3.310 -0.9558 -0.7783  0.6568
  218POPC   C2612118   5.899   1.468   3.476 -0.0719 -0.0606 -0.4655
  218POPC   H6R12119   5.905   1.578   3.492  0.0391 -0.2257  0.6844
  218POPC   H6S12120   5.961   1.416   3.551  1.3178 -2.7544 -3.2914
  218POPC   C2712121   5.751   1.424   3.494  0.0559  0.3373 -0.2062
  218POPC   H7R12122   5.748   1.323   3.447 -0.9290 -0.0544  0.6486
  218POPC   H7S12123   5.684   1.488   3.434 -0.1981 -0.0679 -0.3623
  218POPC   C2812124   5.697   1.421   3.642 -0.0579 -0.0917 -0.1057
  218POPC   H8R12125   5.745   1.336   3.695  1.2315 -0.0380 -1.1340
  218POPC   H8S12126   5.588   1.402   3.640 -0.3201  1.2533 -2.3424
  218POPC   C2912127   5.723   1.549   3.723 -0.3355 -0.5209 -0.0763
  218POPC   H9112128   5.654   1.629   3.692  2.2858  0.6196 -3.4588
  218POPC  C21012129   5.799   1.569   3.832  0.0592  0.2686 -0.2014
  218POPC  H10112130   5.807   1.676   3.857 -4.3561  0.7234  0.0302
  218POPC  C21112131   5.887   1.457   3.887  1.1496  0.1725 -0.0055
  218POPC  H11R12132   5.987   1.503   3.899  0.2578  2.1279  0.2818
  218POPC  H11S12133   5.894   1.364   3.827 -0.3602 -0.3627  0.5905
  218POPC  C21212134   5.839   1.417   4.027 -0.7977  0.1182 -0.4330
  218POPC  H12R12135   5.912   1.337   4.051 -1.8907 -0.6521  0.4344
  218POPC  H12S12136   5.737   1.375   4.014  0.0245 -1.0682 -4.4545
  218POPC  C21312137   5.848   1.525   4.134  0.2387  0.4226 -0.0879
  218POPC  H13R12138   5.765   1.599   4.138 -1.3909 -1.2925 -0.9301
  218POPC  H13S12139   5.946   1.577   4.132  0.5484 -0.1161  0.6173
  218POPC  C21412140   5.840   1.450   4.271 -0.2134  0.1650  0.0256
  218POPC  H14R12141   5.934   1.394   4.290 -0.2700  0.2558  0.5823
  218POPC  H14S12142   5.759   1.373   4.268  0.9759 -1.1112 -0.8059
  218POPC  C21512143   5.831   1.542   4.392 -0.5192 -0.4935 -0.0092
  218POPC  H15R12144   5.729   1.584   4.403 -0.0457  0.5322  0.6126
  218POPC  H15S12145   5.905   1.624   4.379  2.3182 -3.0042 -0.8514
  218POPC  C21612146   5.871   1.470   4.524 -0.7591  0.1033  0.8320
  218POPC  H16R12147   5.977   1.436   4.522 -0.7310  0.1881 -0.7920
  218POPC  H16S12148   5.815   1.374   4.528 -1.7565  0.6258 -0.2234
  218POPC  C21712149   5.844   1.538   4.656 -0.6681  0.4187  0.2647
  218POPC  H17R12150   5.734   1.536   4.673 -0.5592 -1.9234  1.0622
  218POPC  H17S12151   5.881   1.642   4.664 -0.9290  0.3953  2.3166
  218POPC  C21812152   5.920   1.478   4.772 -0.4357  0.2601 -0.1016
  218POPC  H18R12153   6.030   1.470   4.760 -0.6876 -1.4555 -1.8529
  218POPC  H18S12154   5.898   1.369   4.772 -0.5703  0.2700 -1.4305
  218POPC  H18T12155   5.892   1.522   4.870 -0.6064 -0.5745  0.2366
  218POPC   C3312156   5.364   1.388   3.259 -0.1425 -0.3293  0.4833
  218POPC   H3X12157   5.467   1.357   3.285  0.0733 -1.2229 -1.3252
  218POPC   H3Y12158   5.291   1.307   3.279  1.2705 -1.7638 -0.0119
  218POPC   C3412159   5.329   1.517   3.333 -0.0934 -0.8706 -1.0614
  218POPC   H4X12160   5.232   1.555   3.294 -0.2150 -0.0007  0.0353
  218POPC   H4Y12161   5.405   1.594   3.310 -0.3294  0.1514  1.3074
  218POPC   C3512162   5.301   1.516   3.490 -0.3893  0.7986 -0.1218
  218POPC   H5X12163   5.381   1.464   3.546 -1.6033  1.8511  2.8123
  218POPC   H5Y12164   5.197   1.477   3.499 -0.7045  1.7997  0.7652
  218POPC   C3612165   5.286   1.654   3.557  0.2319  0.0968  0.2531
  218POPC   H6X12166   5.202   1.705   3.503  0.2636 -2.1751 -2.1616
  218POPC   H6Y12167   5.386   1.701   3.545 -0.3386  1.0606 -1.0964
  218POPC   C3712168   5.229   1.642   3.703 -0.2094  0.1058  0.4446
  218POPC   H7X12169   5.143   1.571   3.708  1.1250 -1.5059  2.7608
  218POPC   H7Y12170   5.205   1.746   3.733 -2.2765  0.5039 -2.2248
  218POPC   C3812171   5.340   1.579   3.795 -0.1235  0.0564  0.6777
  218POPC   H8X12172   5.422   1.653   3.787 -1.1236  1.2983  1.5946
  218POPC   H8Y12173   5.366   1.478   3.756  1.0694  1.1060 -1.3948
  218POPC   C3912174   5.309   1.569   3.940  0.2317  0.2100 -0.4756
  218POPC   H9X12175   5.205   1.532   3.954 -0.0054  0.8703 -0.4547
  218POPC   H9Y12176   5.312   1.662   4.002 -1.0078  0.2051 -0.3919
  218POPC  C31012177   5.406   1.471   4.017  0.3842  0.2727 -0.4834
  218POPC  H10X12178   5.505   1.520   4.007  0.5338 -0.1249 -1.0028
  218POPC  H10Y12179   5.416   1.377   3.959  1.4411 -1.2864  2.0684
  218POPC  C31112180   5.367   1.440   4.167 -0.2113  0.3433  0.2872
  218POPC  H11X12181   5.383   1.539   4.213  3.1497 -0.5544  1.3163
  218POPC  H11Y12182   5.442   1.371   4.209  2.5079  2.5667 -0.6155
  218POPC  C31212183   5.226   1.387   4.183  0.0221 -0.3257  0.2937
  218POPC  H12X12184   5.211   1.314   4.101 -0.4906 -0.4473  0.4881
  218POPC  H12Y12185   5.147   1.465   4.174  0.6889  0.4680  1.1067
  218POPC  C31312186   5.205   1.336   4.328 -0.0534  0.5795  0.1734
  218POPC  H13X12187   5.249   1.417   4.390 -2.6402  1.6502  0.7085
  218POPC  H13Y12188   5.267   1.244   4.318 -1.7731 -0.3187 -5.4140
  218POPC  C31412189   5.062   1.298   4.368 -0.6211 -0.0424 -0.4223
  218POPC  H14X12190   5.017   1.229   4.293  0.1248  0.4283 -1.3273
  218POPC  H14Y12191   4.996   1.387   4.373  0.0276  0.3877  2.8649
  218POPC  C31512192   5.067   1.221   4.504 -0.2456 -0.0165 -0.2793
  218POPC  H15X12193   5.126   1.274   4.582 -1.3598  0.1468  0.4778
  218POPC  H15Y12194   5.113   1.121   4.492  1.1091  0.5004  0.3608
  218POPC  C31612195   4.929   1.190   4.557  0.2043  0.1050 -0.3168
  218POPC  H16X12196   4.868   1.276   4.594  1.8336 -0.0095  3.0640
  218POPC  H16Y12197   4.937   1.132   4.652 -2.4465  2.9442  1.8833
  218POPC  H16Z12198   4.849   1.141   4.496 -0.7482  1.2906 -0.0669
  219POPC     N12199   0.383   1.600   2.022  0.0801  0.3243  0.5082
  219POPC   C1212200   0.357   1.542   2.162  0.6951 -0.2330 -0.2009
  219POPC  H12A12201   0.409   1.608   2.229  0.3820  3.7081 -3.4338
  219POPC  H12B12202   0.398   1.445   2.184  1.7188  0.5133  1.3320
  219POPC   C1312203   0.302   1.717   1.982  0.0210 -0.3744 -0.0695
  219POPC  H13A12204   0.195   1.707   1.985 -0.4054  2.2096 -2.3165
  219POPC  H13B12205   0.321   1.803   2.046  0.5511 -1.6011  1.5018
  219POPC  H13C12206   0.331   1.744   1.882 -0.3780  0.3402  0.0004
  219POPC   C1412207   0.532   1.637   2.007  0.1546 -0.0569  0.1669
  219POPC  H14A12208   0.548   1.706   2.088 -1.1676 -0.1500  0.5409
  219POPC  H14B12209   0.592   1.547   2.008 -1.9936 -1.5821 -0.7905
  219POPC  H14C12210   0.548   1.679   1.909 -0.2511 -1.4667 -0.5312
  219POPC   C1512211   0.358   1.493   1.919 -0.5146  0.4720 -0.1890
  219POPC  H15A12212   0.429   1.413   1.935 -0.0921  0.3498 -2.4147
  219POPC  H15B12213   0.389   1.523   1.820  0.2525  0.7320  0.1194
  219POPC  H15C12214   0.254   1.466   1.915 -1.4017  3.4299  0.3759
  219POPC   C1112215   0.208   1.533   2.208  0.6546 -0.3478 -0.0161
  219POPC  H11A12216   0.156   1.630   2.196  0.3060 -0.3094  1.5762
  219POPC  H11B12217   0.218   1.517   2.317 -2.0407  1.6478  0.6043
  219POPC     P12218   0.169   1.277   2.132  0.2646 -0.1322  0.1809
  219POPC   O1312219   0.312   1.260   2.162 -0.0708  0.4617  0.2972
  219POPC   O1412220   0.117   1.221   2.007 -0.3037  0.9116 -0.1405
  219POPC   O1212221   0.137   1.436   2.133  0.5479 -0.2611  0.1854
  219POPC   O1112222   0.086   1.212   2.260  0.0285  0.0028  0.2682
  219POPC    C112223   6.396   1.249   2.277  0.5142  0.3287  0.0496
  219POPC    HA12224   6.335   1.164   2.313  0.9149  0.1350  0.2698
  219POPC    HB12225   6.360   1.297   2.184  1.7411  0.7876 -0.2057
  219POPC    C212226   6.369   1.353   2.393  0.7411  0.7306  0.0225
  219POPC    HS12227   6.389   1.456   2.354 -2.0020  0.7265 -1.6400
  219POPC   O2112228   0.003   1.324   2.503 -0.3516  0.2266  0.8429
  219POPC   C2112229   0.011   1.411   2.595 -0.3723  0.0440  0.0433
  219POPC   O2212230   6.395   1.518   2.596  0.4124  0.3543 -0.6144
  219POPC   C2212231   0.114   1.371   2.694  0.0713  0.1976  0.0525
  219POPC   H2R12232   0.187   1.455   2.691 -1.4033  1.6447  2.1088
  219POPC   H2S12233   0.167   1.280   2.659 -0.3518 -0.0697  0.0904
  219POPC    C312234   6.219   1.351   2.433  0.4605 -0.2882 -0.3633
  219POPC    HX12235   6.155   1.384   2.348 -0.8298  1.0746  1.0658
  219POPC    HY12236   6.203   1.423   2.516  0.4092 -4.7800  3.9830
  219POPC   O3112237   6.181   1.217   2.478  0.1005 -0.0286  0.4940
  219POPC   C3112238   6.161   1.203   2.613 -0.6848  0.2881  0.8705
  219POPC   O3212239   6.174   1.299   2.689 -0.1924  0.3809  0.4563
  219POPC   C3212240   6.146   1.053   2.650 -0.2394 -0.5916  0.3623
  219POPC   H2X12241   6.244   1.002   2.642  0.7072  1.0354  1.1394
  219POPC   H2Y12242   6.065   1.024   2.579 -0.4971  1.6616 -0.3290
  219POPC   C2312243   0.051   1.339   2.829 -0.7564 -0.1273 -0.0577
  219POPC   H3R12244  -0.001   1.241   2.824 -0.2445 -0.4167  0.2603
  219POPC   H3S12245  -0.018   1.423   2.855  0.5903  0.1014  3.3478
  219POPC   C2412246   0.161   1.322   2.938  0.0817  0.3440  0.2821
  219POPC   H4R12247   0.201   1.426   2.936 -0.0774  0.4044  0.2616
  219POPC   H4S12248   0.240   1.251   2.903  0.5861  0.6738  0.7319
  219POPC   C2512249   0.097   1.294   3.070  0.0562 -0.3574 -0.2984
  219POPC   H5R12250   0.031   1.205   3.060 -0.2036 -0.1372 -0.5980
  219POPC   H5S12251   0.031   1.380   3.096  1.3352 -0.1319  2.5574
  219POPC   C2612252   0.198   1.270   3.181  0.1252  0.0580 -0.0017
  219POPC   H6R12253   0.270   1.355   3.178 -0.8988  0.9050 -1.6354
  219POPC   H6S12254   0.257   1.180   3.155  0.9133 -0.1037  2.1421
  219POPC   C2712255   0.142   1.254   3.324  0.6232  0.5105 -0.4666
  219POPC   H7R12256   0.094   1.155   3.339  0.3920  0.6407 -0.3475
  219POPC   H7S12257   0.065   1.333   3.340 -1.2584 -1.6427  1.9003
  219POPC   C2812258   0.259   1.283   3.422  0.9255  0.0603 -0.5339
  219POPC   H8R12259   0.298   1.386   3.410 -0.0339  0.2608 -2.3408
  219POPC   H8S12260   0.344   1.216   3.397  1.8893  0.6800  0.9521
  219POPC   C2912261   0.218   1.262   3.568 -0.7320 -0.0496  0.1167
  219POPC   H9112262   0.156   1.173   3.588 -0.7990  0.0207  0.2275
  219POPC  C21012263   0.245   1.345   3.669 -0.2055 -0.2312 -0.2561
  219POPC  H10112264   0.203   1.318   3.767  2.1025  0.1100  0.8935
  219POPC  C21112265   0.324   1.478   3.660  0.6573  0.8081  0.1067
  219POPC  H11R12266   0.254   1.536   3.724 -1.5634 -1.8342  0.2624
  219POPC  H11S12267   0.331   1.537   3.566  0.6615 -0.3361 -0.6269
  219POPC  C21212268   0.462   1.477   3.722  0.6473  0.3711 -0.2476
  219POPC  H12R12269   0.516   1.571   3.698  1.2130  0.0995 -0.0480
  219POPC  H12S12270   0.520   1.399   3.668 -2.6225 -1.0730 -1.9804
  219POPC  C21312271   0.458   1.472   3.875  0.0634  0.1905  0.0292
  219POPC  H13R12272   0.414   1.375   3.906 -1.5348  0.8896  0.0854
  219POPC  H13S12273   0.387   1.552   3.906  1.9071  0.7521  3.2091
  219POPC  C21412274   0.596   1.499   3.939  0.2374 -0.0671 -0.0969
  219POPC  H14R12275   0.645   1.581   3.882 -0.2725 -0.1465 -0.6620
  219POPC  H14S12276   0.649   1.402   3.937 -0.8955 -0.7114 -1.7272
  219POPC  C21512277   0.587   1.550   4.089 -0.7356  0.5510  0.5923
  219POPC  H15R12278   0.488   1.509   4.120 -0.4266 -1.6220 -1.0848
  219POPC  H15S12279   0.605   1.659   4.083  1.8364  0.1167 -1.2617
  219POPC  C21612280   0.710   1.504   4.169  0.3279  0.0652 -0.1342
  219POPC  H16R12281   0.802   1.521   4.108 -0.0389  1.3624 -0.3642
  219POPC  H16S12282   0.695   1.396   4.186 -0.0739  0.0838 -0.3642
  219POPC  C21712283   0.718   1.559   4.310  0.0392  0.6290  0.3116
  219POPC  H17R12284   0.629   1.519   4.364  1.7954 -3.0776  0.7855
  219POPC  H17S12285   0.722   1.670   4.314  0.2532  0.6362 -0.0226
  219POPC  C21812286   0.844   1.514   4.389  0.0647  0.2683 -0.3040
  219POPC  H18R12287   0.928   1.466   4.335  1.2023 -0.3566  1.8835
  219POPC  H18S12288   0.819   1.431   4.458  1.3715  0.6950  0.7243
  219POPC  H18T12289   0.896   1.602   4.434 -2.1771  1.1185  0.7732
  219POPC   C3312290   6.093   1.039   2.797  0.5833 -0.0357 -0.0865
  219POPC   H3X12291   6.058   0.934   2.806 -1.4624  0.5017 -1.1427
  219POPC   H3Y12292   5.995   1.089   2.807 -0.0898 -1.2249 -0.4842
  219POPC   C3412293   6.191   1.046   2.907  0.2438  0.1551  0.9493
  219POPC   H4X12294   6.215   1.148   2.944 -1.8294  0.6907  0.9757
  219POPC   H4Y12295   6.285   0.990   2.886  1.2122  2.4139 -1.1144
  219POPC   C3512296   6.138   0.976   3.025 -0.4747 -0.1349 -0.7823
  219POPC   H5X12297   6.132   0.868   2.997  0.5500 -0.0183 -1.4786
  219POPC   H5Y12298   6.030   1.001   3.033 -0.6162 -0.2384 -2.1042
  219POPC   C3612299   6.198   1.008   3.164 -0.1652 -0.8171  0.5936
  219POPC   H6X12300   6.216   1.117   3.165 -0.6057 -0.7414  0.4658
  219POPC   H6Y12301   6.290   0.947   3.178  0.4827 -0.3005 -1.2170
  219POPC   C3712302   6.092   0.980   3.265  0.2656  0.1358  0.7226
  219POPC   H7X12303   6.064   0.874   3.245  1.4220 -0.2533  1.0583
  219POPC   H7Y12304   6.007   1.051   3.254  0.9436  0.5884 -2.6859
  219POPC   C3812305   6.146   0.978   3.408 -0.2277 -0.0122 -0.4504
  219POPC   H8X12306   6.219   0.895   3.400  1.1797  1.2312 -0.9317
  219POPC   H8Y12307   6.066   0.954   3.481  0.0545  1.2188  0.3035
  219POPC   C3912308   6.197   1.114   3.453 -0.1400 -0.2863 -0.5359
  219POPC   H9X12309   6.111   1.181   3.475  1.0792  0.3395  2.8388
  219POPC   H9Y12310   6.264   1.171   3.385  2.7581 -2.0993  0.6108
  219POPC  C31012311   6.277   1.105   3.592  0.3231 -0.6579 -0.8894
  219POPC  H10X12312   6.382   1.078   3.569 -0.2402 -1.5824 -2.5352
  219POPC  H10Y12313   6.242   1.028   3.665  2.4825  1.0126  2.1720
  219POPC  C31112314   6.281   1.238   3.671  0.3271  0.2631  0.5813
  219POPC  H11X12315   6.282   1.320   3.596 -0.6808  1.5252  1.8643
  219POPC  H11Y12316   6.372   1.255   3.733  0.0730  0.4203  0.9190
  219POPC  C31212317   6.159   1.268   3.765  0.3580  0.2347 -0.1359
  219POPC  H12X12318   6.063   1.257   3.710 -1.3866  0.0224  2.7485
  219POPC  H12Y12319   6.184   1.374   3.786 -0.0005  0.9000 -2.7085
  219POPC  C31312320   6.148   1.183   3.888  0.6533 -0.0119  0.0844
  219POPC  H13X12321   6.176   1.084   3.845 -0.8775 -1.5535  2.3759
  219POPC  H13Y12322   6.044   1.176   3.927  0.4013  0.3778 -0.4946
  219POPC  C31412323   6.232   1.220   4.011  0.2130 -0.9172 -0.1916
  219POPC  H14X12324   6.207   1.326   4.032  2.1581 -0.1747 -1.3852
  219POPC  H14Y12325   6.338   1.203   3.984  0.4759  0.0833  0.1717
  219POPC  C31512326   6.200   1.137   4.138  0.3994  0.0744  0.9525
  219POPC  H15X12327   6.235   1.032   4.130 -3.1301 -1.1284 -1.2644
  219POPC  H15Y12328   6.090   1.143   4.125  0.7094  1.7873 -1.6862
  219POPC  C31612329   6.238   1.204   4.269  0.2876  0.2334  0.4498
  219POPC  H16X12330   6.347   1.204   4.292  0.5793  1.1897 -0.7838
  219POPC  H16Y12331   6.179   1.164   4.353 -0.9097  2.5619  0.7995
  219POPC  H16Z12332   6.218   1.313   4.261 -0.2796  0.1972  1.3454
  220POPC     N12333   0.936   1.670   2.351  0.2884 -0.5512 -0.0747
  220POPC   C1212334   0.971   1.540   2.423 -0.2420 -0.7678  0.1235
  220POPC  H12A12335   1.072   1.509   2.396  0.0187 -0.2971  0.5626
  220POPC  H12B12336   0.906   1.458   2.398 -0.6131 -1.0640  1.9426
  220POPC   C1312337   0.810   1.729   2.417 -0.0096 -0.3191  0.5206
  220POPC  H13A12338   0.834   1.743   2.521 -1.0301 -0.5081  0.7932
  220POPC  H13B12339   0.785   1.818   2.362  1.0019 -0.0678  0.4572
  220POPC  H13C12340   0.734   1.652   2.415 -0.4123  0.0821  0.1293
  220POPC   C1412341   1.046   1.776   2.362  0.5483  0.1782  0.1343
  220POPC  H14A12342   1.074   1.795   2.464 -1.0730  0.6134  0.5295
  220POPC  H14B12343   1.132   1.738   2.309  0.3614 -2.1141  1.3479
  220POPC  H14C12344   1.014   1.867   2.314 -5.0651 -1.7124 -0.4334
  220POPC   C1512345   0.901   1.650   2.209 -0.2096 -0.1660  0.2510
  220POPC  H15A12346   0.863   1.743   2.168 -1.8388 -0.2322  1.5004
  220POPC  H15B12347   0.822   1.580   2.186 -1.4802  1.6073 -1.0364
  220POPC  H15C12348   0.991   1.622   2.156 -0.9870  0.7968 -1.6726
  220POPC   C1112349   0.966   1.540   2.579  0.5820  0.3548  0.0921
  220POPC  H11A12350   0.999   1.436   2.600  1.6220  0.8135  0.7774
  220POPC  H11B12351   0.865   1.553   2.624  1.1395  1.3541  1.1010
  220POPC     P12352   1.189   1.597   2.683 -0.3082  0.1494 -0.2777
  220POPC   O1312353   1.269   1.717   2.683  0.3226 -0.0593 -0.2284
  220POPC   O1412354   1.247   1.489   2.598  0.8706  0.3910 -0.2122
  220POPC   O1212355   1.045   1.638   2.637  0.9294 -0.3813 -0.4305
  220POPC   O1112356   1.164   1.550   2.821 -0.3997  0.0452 -0.7563
  220POPC    C112357   1.082   1.611   2.924  0.1057  0.1387  0.4692
  220POPC    HA12358   0.994   1.649   2.867  2.2897  1.8904 -1.9791
  220POPC    HB12359   1.129   1.698   2.973 -0.5730  0.2650  0.9130
  220POPC    C212360   1.025   1.513   3.028 -0.7506  0.6440 -0.3724
  220POPC    HS12361   0.942   1.559   3.085 -0.9241 -1.7799  1.5056
  220POPC   O2112362   1.131   1.498   3.127  0.1517 -0.0002  0.2443
  220POPC   C2112363   1.159   1.597   3.214  0.1283  0.6683  0.2771
  220POPC   O2212364   1.095   1.697   3.229  0.4451  0.2011  0.5231
  220POPC   C2212365   1.292   1.562   3.290 -0.4682  0.4297  0.5666
  220POPC   H2R12366   1.383   1.584   3.231  1.0827  0.9672  2.9940
  220POPC   H2S12367   1.288   1.452   3.309  0.5389  0.9907  5.3938
  220POPC    C312368   0.990   1.378   2.973  0.1414  0.2917  0.0915
  220POPC    HX12369   1.077   1.321   2.937  1.5739  0.3820  3.1011
  220POPC    HY12370   0.931   1.410   2.884  1.2513 -2.9368 -1.9523
  220POPC   O3112371   0.907   1.310   3.073 -0.0590  0.0608  0.0064
  220POPC   C3112372   0.983   1.237   3.151 -0.1521 -0.0189 -0.5760
  220POPC   O3212373   1.096   1.197   3.134  0.5412  0.0682  0.7207
  220POPC   C3212374   0.906   1.217   3.272  0.5547 -0.1861 -0.5368
  220POPC   H2X12375   0.880   1.321   3.302  0.2501 -0.8660  1.6946
  220POPC   H2Y12376   0.968   1.156   3.341  1.2485  1.7445  0.6473
  220POPC   C2312377   1.292   1.638   3.426 -0.3181 -0.1313  0.8617
  220POPC   H3R12378   1.188   1.644   3.466 -1.2970  1.5459 -1.6281
  220POPC   H3S12379   1.335   1.740   3.413 -1.0514  0.2268  1.1695
  220POPC   C2412380   1.381   1.551   3.519 -0.4139 -0.4086 -0.2443
  220POPC   H4R12381   1.472   1.510   3.469  1.2692  1.7631  0.8478
  220POPC   H4S12382   1.320   1.466   3.557 -0.6795  0.4757  1.4204
  220POPC   C2512383   1.427   1.617   3.656  0.1579 -0.3795  0.9430
  220POPC   H5R12384   1.339   1.652   3.712  0.7883 -0.1875  1.8356
  220POPC   H5S12385   1.491   1.702   3.624 -0.5159 -1.1381 -2.9051
  220POPC   C2612386   1.522   1.523   3.738  0.1204  0.7787  0.7172
  220POPC   H6R12387   1.624   1.518   3.694 -0.3479 -2.6494 -0.2619
  220POPC   H6S12388   1.478   1.421   3.733  1.4227  0.1539  1.4864
  220POPC   C2712389   1.538   1.566   3.887 -0.3850 -0.9209 -0.1628
  220POPC   H7R12390   1.440   1.566   3.939  0.1575  0.2025  0.8892
  220POPC   H7S12391   1.578   1.670   3.890  0.6117 -1.3122  1.0756
  220POPC   C2812392   1.635   1.476   3.962  0.5005 -0.0160  0.4656
  220POPC   H8R12393   1.727   1.454   3.903 -0.1301 -2.2089  0.2242
  220POPC   H8S12394   1.589   1.377   3.982  2.9453 -1.0623  1.2144
  220POPC   C2912395   1.660   1.544   4.097 -0.2920  0.1980  0.7079
  220POPC   H9112396   1.568   1.574   4.149 -0.9044 -0.9656  0.3181
  220POPC  C21012397   1.778   1.566   4.162 -0.2560  0.2186 -0.8434
  220POPC  H10112398   1.777   1.616   4.260 -1.3995 -0.5166 -0.4625
  220POPC  C21112399   1.911   1.521   4.115  0.3921  0.0226  0.1228
  220POPC  H11R12400   1.920   1.510   4.005 -4.0148  0.8246 -0.5177
  220POPC  H11S12401   1.929   1.424   4.167 -0.8814 -1.2333 -1.6598
  220POPC  C21212402   2.009   1.630   4.163  0.2082  0.4113 -0.5180
  220POPC  H12R12403   1.998   1.626   4.274 -1.1237  1.0877 -0.6050
  220POPC  H12S12404   1.971   1.730   4.135 -0.6515  0.0088 -0.8286
  220POPC  C21312405   2.152   1.611   4.119 -0.4288  0.0715 -0.3398
  220POPC  H13R12406   2.209   1.699   4.157  1.0474 -1.7297  1.8935
  220POPC  H13S12407   2.162   1.601   4.008 -2.1007 -1.0822 -0.4147
  220POPC  C21412408   2.215   1.484   4.184 -0.3071  0.0712 -0.5002
  220POPC  H14R12409   2.157   1.394   4.153 -0.5216  0.1046 -0.2022
  220POPC  H14S12410   2.211   1.499   4.294  1.9542 -1.1035 -0.2148
  220POPC  C21512411   2.358   1.471   4.133  0.9790 -0.0410 -0.3476
  220POPC  H15R12412   2.413   1.564   4.156 -0.0781 -0.1227  3.1023
  220POPC  H15S12413   2.346   1.469   4.023 -1.6321  1.0738 -0.1710
  220POPC  C21612414   2.440   1.352   4.184  0.1073  0.1780  0.4071
  220POPC  H16R12415   2.547   1.362   4.155 -0.7682 -1.8453 -4.5003
  220POPC  H16S12416   2.394   1.259   4.144 -1.9409  1.6211 -0.8046
  220POPC  C21712417   2.438   1.329   4.339  0.1332  0.2060 -0.6762
  220POPC  H17R12418   2.497   1.236   4.349  1.6040  1.1253 -0.4383
  220POPC  H17S12419   2.333   1.313   4.372  0.0701 -2.0283 -1.8135
  220POPC  C21812420   2.506   1.440   4.413 -0.2751 -0.5354  0.5280
  220POPC  H18R12421   2.439   1.528   4.424  1.0202  0.6413 -0.5990
  220POPC  H18S12422   2.594   1.484   4.362 -1.3946  2.0934  0.7385
  220POPC  H18T12423   2.534   1.394   4.511 -0.7209 -0.0921  0.8674
  220POPC   C3312424   0.759   1.163   3.247 -0.4456  0.1893 -0.0292
  220POPC   H3X12425   0.756   1.059   3.208  0.0657  0.0863  0.1821
  220POPC   H3Y12426   0.721   1.229   3.167 -1.2416 -1.2864 -0.9057
  220POPC   C3412427   0.669   1.167   3.373  0.3625  0.5504 -0.2907
  220POPC   H4X12428   0.564   1.146   3.342  0.7808 -0.2978 -1.1954
  220POPC   H4Y12429   0.674   1.272   3.411  0.0327 -0.3198  2.3110
  220POPC   C3512430   0.703   1.066   3.485  0.2683  0.2675  1.4809
  220POPC   H5X12431   0.810   1.081   3.513  0.7275 -1.9283  1.0862
  220POPC   H5Y12432   0.691   0.961   3.451 -2.5917  0.0280  2.9221
  220POPC   C3612433   0.613   1.071   3.610 -0.2592 -1.1189 -0.6655
  220POPC   H6X12434   0.504   1.064   3.588 -0.1657 -1.4473 -1.0509
  220POPC   H6Y12435   0.619   1.168   3.663 -1.3769 -1.9045  1.0219
  220POPC   C3712436   0.641   0.968   3.719  0.1216 -0.2359  0.1842
  220POPC   H7X12437   0.668   0.866   3.686 -2.0186 -1.0239  0.6926
  220POPC   H7Y12438   0.541   0.954   3.766 -0.7048  0.6116 -1.2224
  220POPC   C3812439   0.740   1.012   3.829  0.2751  0.5928 -0.1143
  220POPC   H8X12440   0.706   1.107   3.876  1.2736  0.8382  0.1475
  220POPC   H8Y12441   0.841   1.032   3.788  0.2538  1.2571  0.1468
  220POPC   C3912442   0.756   0.901   3.939 -0.3074 -0.4269 -0.2558
  220POPC   H9X12443   0.795   0.806   3.895  0.5933 -0.4659  0.5882
  220POPC   H9Y12444   0.665   0.888   4.000  0.7377  1.2127  1.7998
  220POPC  C31012445   0.860   0.949   4.045 -0.8450  0.2096  0.2690
  220POPC  H10X12446   0.920   1.032   4.002 -1.0104  0.6364  0.8414
  220POPC  H10Y12447   0.927   0.866   4.076  0.2344  0.3220 -1.6278
  220POPC  C31112448   0.803   1.004   4.178 -0.4669 -0.1330  0.4721
  220POPC  H11X12449   0.791   0.912   4.239  1.9036 -0.7774  0.0454
  220POPC  H11Y12450   0.705   1.051   4.153 -1.1726 -0.9670  1.5764
  220POPC  C31212451   0.881   1.099   4.266 -0.3595 -0.2789  0.7634
  220POPC  H12X12452   0.874   1.197   4.214 -3.1054 -1.2866 -0.9617
  220POPC  H12Y12453   0.989   1.071   4.271 -0.3000  0.0109  1.1114
  220POPC  C31312454   0.826   1.098   4.401 -0.5814 -0.5279 -0.1765
  220POPC  H13X12455   0.807   0.991   4.426  1.2233 -0.5981  1.0934
  220POPC  H13Y12456   0.729   1.150   4.397 -0.0869  0.3267 -1.7052
  220POPC  C31412457   0.913   1.151   4.524  1.0189  0.6101  0.0750
  220POPC  H14X12458   0.934   1.259   4.507  1.1778  0.4440 -0.8164
  220POPC  H14Y12459   1.016   1.109   4.516  1.6627  2.1337  0.0266
  220POPC  C31512460   0.867   1.118   4.665 -0.2014  0.2421 -0.5621
  220POPC  H15X12461   0.757   1.132   4.670 -0.3713 -1.2669  0.6727
  220POPC  H15Y12462   0.904   1.194   4.738 -1.9042 -0.2345  0.8815
  220POPC  C31612463   0.910   0.983   4.720  0.2155 -1.0633  1.3476
  220POPC  H16X12464   0.884   0.976   4.827 -1.7940  0.3670  1.0081
  220POPC  H16Y12465   1.021   0.975   4.720  0.4764  1.5293 -0.3514
  220POPC  H16Z12466   0.854   0.903   4.666 -0.8279  1.1737 -1.1453
  221POPC     N12467   3.001   3.027   2.519  0.6898  0.0094 -0.1745
  221POPC   C1212468   3.108   2.920   2.491  0.7004 -0.4247  1.0596
  221POPC  H12A12469   3.207   2.963   2.507  1.9441 -2.5218 -0.5152
  221POPC  H12B12470   3.096   2.887   2.389 -1.8735  2.2290  0.3644
  221POPC   C1312471   2.867   2.960   2.517  0.3472  0.2320 -0.0321
  221POPC  H13A12472   2.854   2.906   2.424 -1.6409 -1.4483  1.1200
  221POPC  H13B12473   2.866   2.890   2.600 -1.5073  1.1924  0.8307
  221POPC  H13C12474   2.790   3.033   2.536  0.4419  0.7699 -1.6124
  221POPC   C1412475   3.012   3.080   2.657  0.3784 -0.1107 -0.0455
  221POPC  H14A12476   3.105   3.131   2.677 -0.1218  0.6436  0.3693
  221POPC  H14B12477   2.932   3.152   2.660 -0.2612 -0.7152 -1.4689
  221POPC  H14C12478   2.981   3.003   2.727 -0.6161 -0.6768 -1.0665
  221POPC   C1512479   3.008   3.139   2.422 -0.3478  1.1371  0.5244
  221POPC  H15A12480   3.105   3.183   2.435  2.5549 -4.5481  1.4438
  221POPC  H15B12481   2.926   3.209   2.424 -0.7113  0.7155  2.8443
  221POPC  H15C12482   3.011   3.099   2.321 -0.7696  1.0298  0.5496
  221POPC   C1112483   3.099   2.794   2.581 -0.6312  0.0411 -0.5225
  221POPC  H11A12484   3.061   2.828   2.680 -0.5027 -1.6464  0.1323
  221POPC  H11B12485   3.200   2.752   2.601  0.0136  0.3683 -2.7709
  221POPC     P12486   2.913   2.598   2.605  0.6291 -0.2025 -0.2534
  221POPC   O1312487   2.998   2.539   2.714  0.3117 -0.5439  0.3719
  221POPC   O1412488   2.835   2.503   2.525  0.0226  0.0630 -0.0302
  221POPC   O1212489   3.016   2.688   2.520 -0.1814 -0.4478 -0.6251
  221POPC   O1112490   2.811   2.706   2.669 -0.9216 -0.2233  0.3567
  221POPC    C112491   2.756   2.697   2.790  0.8066 -0.0477  0.4099
  221POPC    HA12492   2.791   2.616   2.857 -0.2433  0.0365  1.1010
  221POPC    HB12493   2.656   2.651   2.775  1.9934 -2.6270 -0.1799
  221POPC    C212494   2.759   2.832   2.864  0.6154  0.5037  0.2181
  221POPC    HS12495   2.751   2.905   2.781  1.9664 -0.7347 -1.0661
  221POPC   O2112496   2.872   2.848   2.955 -0.5698 -0.2440 -0.7627
  221POPC   C2112497   2.891   2.972   3.020 -0.0272  0.3578  0.3480
  221POPC   O2212498   2.828   3.074   3.000 -0.0835  0.2387  0.0325
  221POPC   C2212499   3.012   2.967   3.118  0.1412 -0.1621  0.1617
  221POPC   H2R12500   3.077   3.056   3.110  1.0729 -1.0099 -3.5295
  221POPC   H2S12501   3.083   2.889   3.084  2.0942  2.2051 -1.5216
  221POPC    C312502   2.621   2.849   2.945 -0.0031 -0.0211  0.1390
  221POPC    HX12503   2.542   2.815   2.874  0.5477  0.8332 -0.9097
  221POPC    HY12504   2.595   2.955   2.966 -2.2308  0.1288 -2.7068
  221POPC   O3112505   2.620   2.783   3.073 -0.1821  0.4945  0.2464
  221POPC   C3112506   2.558   2.673   3.089  0.3062 -0.3808  0.0194
  221POPC   O3212507   2.505   2.606   2.998 -0.2145  0.1074  0.1684
  221POPC   C3212508   2.564   2.641   3.234 -0.3032  0.2605  0.2829
  221POPC   H2X12509   2.581   2.727   3.303 -0.6732 -0.7003  1.6033
  221POPC   H2Y12510   2.647   2.568   3.242 -0.6211 -0.0274  1.0280
  221POPC   C2312511   2.971   2.929   3.265  0.4686 -0.4603  0.9230
  221POPC   H3R12512   2.909   3.005   3.317 -0.7809 -1.2788  0.6584
  221POPC   H3S12513   3.064   2.923   3.325  1.7554 -0.6657 -0.9876
  221POPC   C2412514   2.906   2.799   3.273  0.1939  0.7726 -0.5125
  221POPC   H4R12515   2.941   2.730   3.193 -2.4385  0.2096 -1.2716
  221POPC   H4S12516   2.796   2.800   3.256  0.0976 -0.7921 -0.1255
  221POPC   C2512517   2.918   2.728   3.410  0.0777 -0.0183  0.1926
  221POPC   H5R12518   3.021   2.739   3.451  0.7565 -0.2920 -1.3967
  221POPC   H5S12519   2.901   2.618   3.407 -0.5410  0.0126  1.6332
  221POPC   C2612520   2.822   2.778   3.515 -0.4051  0.0906  0.4651
  221POPC   H6R12521   2.720   2.773   3.470  0.7728  1.0339 -2.5881
  221POPC   H6S12522   2.837   2.887   3.529 -0.1826  0.3728 -1.6816
  221POPC   C2712523   2.823   2.701   3.647  0.2937  1.3381 -0.5670
  221POPC   H7R12524   2.931   2.690   3.670  0.7988  0.0379 -3.1748
  221POPC   H7S12525   2.789   2.597   3.626  0.4469  1.4267 -1.2827
  221POPC   C2812526   2.748   2.765   3.767  0.9666  0.0706  0.3363
  221POPC   H8R12527   2.776   2.872   3.770 -1.0595  0.6331  3.4998
  221POPC   H8S12528   2.785   2.710   3.856 -0.6077  0.8274  1.4986
  221POPC   C2912529   2.598   2.731   3.752  0.3524  0.1516  0.1096
  221POPC   H9112530   2.580   2.668   3.664  0.3840  0.0364  0.1839
  221POPC  C21012531   2.503   2.791   3.830  0.2318 -0.6505 -0.7035
  221POPC  H10112532   2.407   2.738   3.820 -0.6596  1.2714 -3.2103
  221POPC  C21112533   2.533   2.889   3.945  0.2737 -0.0994 -0.1992
  221POPC  H11R12534   2.444   2.955   3.953 -1.1576 -2.0114  0.3691
  221POPC  H11S12535   2.610   2.962   3.913 -0.3539 -0.1517 -1.9942
  221POPC  C21212536   2.551   2.818   4.077  0.1302  0.3136 -0.6131
  221POPC  H12R12537   2.631   2.740   4.082  0.9410  1.1119 -0.8557
  221POPC  H12S12538   2.451   2.776   4.103  1.1583 -1.3319  0.9127
  221POPC  C21312539   2.586   2.927   4.184  0.0879  0.3317 -0.0122
  221POPC  H13R12540   2.504   3.001   4.193 -0.0938  0.3829 -1.6987
  221POPC  H13S12541   2.668   2.994   4.151 -0.8430  1.5332  0.0256
  221POPC  C21412542   2.631   2.869   4.317  0.6195 -0.3108  0.5498
  221POPC  H14R12543   2.729   2.818   4.305  0.3146 -0.6228 -0.8127
  221POPC  H14S12544   2.551   2.801   4.354 -1.3473  1.9160  0.5841
  221POPC  C21512545   2.669   2.979   4.415  0.3726 -1.0913 -0.2447
  221POPC  H15R12546   2.597   3.063   4.403 -0.5577 -1.9925 -1.1990
  221POPC  H15S12547   2.775   3.000   4.386  1.3445 -2.2497  2.2514
  221POPC  C21612548   2.673   2.939   4.565 -0.3770  0.4918 -0.9118
  221POPC  H16R12549   2.735   2.848   4.579 -0.3688  0.9232  3.4222
  221POPC  H16S12550   2.568   2.919   4.595 -0.8779  1.5085 -1.9394
  221POPC  C21712551   2.745   3.039   4.661  0.1226  0.2194 -0.0726
  221POPC  H17R12552   2.828   3.098   4.615 -0.1860  0.6731 -0.0523
  221POPC  H17S12553   2.783   2.981   4.747 -0.1085 -0.6960 -0.5784
  221POPC  C21812554   2.642   3.130   4.723 -0.2904 -0.2776  0.5046
  221POPC  H18R12555   2.570   3.070   4.782 -0.9842  0.8354  0.8209
  221POPC  H18S12556   2.588   3.177   4.637 -2.6850 -2.1062  0.9167
  221POPC  H18T12557   2.686   3.208   4.788  0.3078 -0.2535  0.0848
  221POPC   C3312558   2.434   2.563   3.265  0.0610 -0.4514 -0.2746
  221POPC   H3X12559   2.448   2.504   3.358  0.2767  0.6378  0.4049
  221POPC   H3Y12560   2.401   2.490   3.188  2.0584 -0.0614 -1.5676
  221POPC   C3412561   2.318   2.649   3.300  0.8718  0.1362  0.4029
  221POPC   H4X12562   2.230   2.582   3.291  1.5993 -0.8738  0.6198
  221POPC   H4Y12563   2.303   2.729   3.223 -0.3436  3.8540  4.1117
  221POPC   C3512564   2.332   2.708   3.439  0.0332 -0.2035  0.5893
  221POPC   H5X12565   2.434   2.734   3.475  1.5923 -2.4407 -1.8057
  221POPC   H5Y12566   2.307   2.629   3.513  1.0438 -0.5630  0.5643
  221POPC   C3612567   2.244   2.832   3.462  0.0205  0.4461 -0.2489
  221POPC   H6X12568   2.257   2.909   3.383 -2.3962 -0.3202 -1.4996
  221POPC   H6Y12569   2.268   2.877   3.561  1.0621  0.1886 -0.3681
  221POPC   C3712570   2.098   2.788   3.453  0.4253 -0.6235 -0.5085
  221POPC   H7X12571   2.096   2.684   3.494  0.2284 -0.9054 -1.2082
  221POPC   H7Y12572   2.052   2.787   3.351 -0.5175 -1.8427 -0.1028
  221POPC   C3812573   2.015   2.859   3.563 -0.4434  0.4993  0.2689
  221POPC   H8X12574   2.072   2.876   3.657  1.0679 -0.8318 -0.3388
  221POPC   H8Y12575   1.930   2.800   3.605 -1.6026  1.7231 -0.3172
  221POPC   C3912576   1.938   2.981   3.515 -0.8514 -0.6565  0.2196
  221POPC   H9X12577   1.846   2.945   3.465 -2.2320  0.4429  1.8803
  221POPC   H9Y12578   1.986   3.054   3.446 -2.0597 -0.8516 -0.8731
  221POPC  C31012579   1.878   3.068   3.628  0.3611 -0.2250 -0.4286
  221POPC  H10X12580   1.837   3.158   3.576 -0.6033 -0.4969 -0.1568
  221POPC  H10Y12581   1.952   3.115   3.697 -1.5897 -0.7531  2.1761
  221POPC  C31112582   1.767   3.002   3.700  0.1428  0.3778 -0.4179
  221POPC  H11X12583   1.801   2.903   3.735 -2.7592 -0.5246  0.1620
  221POPC  H11Y12584   1.677   2.992   3.634  0.7226  0.3578 -1.2231
  221POPC  C31212585   1.728   3.079   3.829 -0.4447 -0.2994 -0.0469
  221POPC  H12X12586   1.774   3.180   3.821  3.8101 -1.8514  1.8737
  221POPC  H12Y12587   1.775   3.041   3.922 -0.7906  3.6084  1.9297
  221POPC  C31312588   1.577   3.090   3.858  0.6860  0.1449  0.4703
  221POPC  H13X12589   1.511   3.129   3.778  0.1445 -0.8525  0.4162
  221POPC  H13Y12590   1.555   3.154   3.946 -2.7130 -0.0930 -0.0768
  221POPC  C31412591   1.527   2.944   3.891 -0.1458 -1.0782 -0.6712
  221POPC  H14X12592   1.585   2.919   3.983 -0.1854 -0.9042 -0.5971
  221POPC  H14Y12593   1.561   2.873   3.812  0.6363  0.9310 -2.2364
  221POPC  C31512594   1.381   2.930   3.928 -0.2814  0.8559 -0.3040
  221POPC  H15X12595   1.343   2.826   3.932 -2.3594  1.4760 -1.9607
  221POPC  H15Y12596   1.339   2.970   3.834 -0.3793 -2.8939 -2.0526
  221POPC  C31612597   1.342   3.009   4.049  0.4079 -0.3027 -0.4926
  221POPC  H16X12598   1.232   3.008   4.066  0.2354 -0.1083 -1.5539
  221POPC  H16Y12599   1.363   3.115   4.021  0.9884 -0.0301  0.8860
  221POPC  H16Z12600   1.394   2.981   4.143  0.2738 -1.0879 -0.6487
  222POPC     N12601   2.168   3.745   3.068 -0.0666  0.2025 -0.0860
  222POPC   C1212602   2.192   3.832   2.945  0.2717 -0.0728  0.1320
  222POPC  H12A12603   2.128   3.918   2.953 -0.5950 -0.6123 -0.6777
  222POPC  H12B12604   2.143   3.785   2.861 -2.1585  2.6161 -0.0940
  222POPC   C1312605   2.021   3.703   3.068 -0.1194 -0.8993 -0.3885
  222POPC  H13A12606   1.957   3.788   3.052 -1.0392 -1.6832 -0.9759
  222POPC  H13B12607   2.002   3.626   2.994 -0.0580 -1.1178 -0.1803
  222POPC  H13C12608   1.991   3.677   3.169 -0.7607 -0.2313 -0.3990
  222POPC   C1412609   2.251   3.623   3.066 -0.2856  0.4328  0.1801
  222POPC  H14A12610   2.204   3.545   3.009  1.6740  0.2844 -1.3524
  222POPC  H14B12611   2.338   3.647   3.006 -1.9982  2.5676 -1.6329
  222POPC  H14C12612   2.276   3.580   3.162  0.8618  0.6335 -0.0092
  222POPC   C1512613   2.193   3.827   3.189  0.3849  0.3793 -0.0187
  222POPC  H15A12614   2.290   3.806   3.232 -1.3295 -0.9047  3.5953
  222POPC  H15B12615   2.115   3.798   3.258  0.1861 -0.9985 -0.7946
  222POPC  H15C12616   2.190   3.933   3.168 -0.6319  0.4166  0.2739
  222POPC   C1112617   2.329   3.888   2.896 -0.3680  0.3697 -0.0258
  222POPC  H11A12618   2.380   3.931   2.985 -1.2428  0.0857  0.6259
  222POPC  H11B12619   2.328   3.967   2.818 -0.7266  1.4668  1.0596
  222POPC     P12620   2.565   3.803   2.816  0.3467 -0.3273 -0.2224
  222POPC   O1312621   2.577   3.919   2.720  0.0247 -0.0614 -0.0510
  222POPC   O1412622   2.637   3.678   2.789  0.6039  0.0325  0.6621
  222POPC   O1212623   2.405   3.781   2.834 -1.1005  0.0160  0.1635
  222POPC   O1112624   2.614   3.844   2.969 -0.3796  0.4843  0.6136
  222POPC    C112625   2.638   3.737   3.066  0.3286 -0.5841 -0.2125
  222POPC    HA12626   2.749   3.727   3.068  0.5354  1.0022 -1.7873
  222POPC    HB12627   2.599   3.636   3.039  1.3829 -0.6309 -1.6446
  222POPC    C212628   2.583   3.787   3.201 -0.5718  0.0212 -0.5631
  222POPC    HS12629   2.474   3.800   3.184 -1.6345 -3.3158  2.4110
  222POPC   O2112630   2.659   3.906   3.243  0.3100 -0.4929 -0.0000
  222POPC   C2112631   2.590   4.009   3.287 -0.1295 -0.6510  0.3123
  222POPC   O2212632   2.467   4.001   3.295  0.3183 -0.1153 -0.0172
  222POPC   C2212633   2.675   4.116   3.354  0.5797  0.2971  0.0355
  222POPC   H2R12634   2.637   4.214   3.320 -0.7689  0.0432  0.7408
  222POPC   H2S12635   2.776   4.110   3.309 -0.2074  1.8185 -2.0633
  222POPC    C312636   2.611   3.675   3.306  0.6361  0.0552  0.4319
  222POPC    HX12637   2.719   3.648   3.309  0.0679 -2.5836 -0.3711
  222POPC    HY12638   2.563   3.584   3.263 -1.7081  1.3512  0.1893
  222POPC   O3112639   2.551   3.726   3.431  0.3443  0.6401  0.5479
  222POPC   C3112640   2.428   3.705   3.454  0.3005 -0.3171  0.5909
  222POPC   O3212641   2.348   3.643   3.382 -0.2013 -0.6721  0.4290
  222POPC   C3212642   2.394   3.768   3.587 -0.5014 -0.5341 -0.3180
  222POPC   H2X12643   2.284   3.753   3.589 -0.7755  0.1399 -3.8677
  222POPC   H2Y12644   2.410   3.878   3.594 -0.6607 -0.6174  3.3239
  222POPC   C2312645   2.661   4.115   3.510  0.2500 -0.4144 -0.3360
  222POPC   H3R12646   2.669   4.014   3.556  0.5931  0.3578  1.3821
  222POPC   H3S12647   2.554   4.142   3.526  0.5929  0.3220  0.7615
  222POPC   C2412648   2.743   4.212   3.594  0.4405 -0.0251  0.2402
  222POPC   H4R12649   2.852   4.190   3.583  0.3323 -0.2118 -0.5286
  222POPC   H4S12650   2.714   4.177   3.695 -1.2850 -1.8823 -0.8341
  222POPC   C2512651   2.695   4.354   3.577  0.1201 -0.7072 -0.2100
  222POPC   H5R12652   2.584   4.351   3.581  0.1757 -2.0694  1.4339
  222POPC   H5S12653   2.730   4.399   3.481  0.2688 -2.8228 -1.2047
  222POPC   C2612654   2.750   4.435   3.698 -0.2413 -0.3372  0.1448
  222POPC   H6R12655   2.728   4.381   3.792  0.8618  1.3886  1.4733
  222POPC   H6S12656   2.704   4.536   3.703 -1.2201 -0.7732  0.0401
  222POPC   C2712657   2.900   4.457   3.685  0.5678  0.3040  0.9522
  222POPC   H7R12658   2.921   4.497   3.584  1.1666 -2.9239 -0.3226
  222POPC   H7S12659   2.956   4.361   3.683  0.5989  0.3371 -0.5757
  222POPC   C2812660   2.952   4.559   3.790 -0.5468 -0.0199 -0.1839
  222POPC   H8R12661   2.921   4.526   3.891  0.0660  1.0922  0.3808
  222POPC   H8S12662   2.916   4.663   3.784  2.5049  1.0707 -2.2308
  222POPC   C2912663   3.104   4.560   3.804  0.0478 -0.1493  0.5027
  222POPC   H9112664   3.140   4.646   3.745  0.1054  0.8222  1.9156
  222POPC  C21012665   3.188   4.489   3.876  0.6549  0.3397  0.5556
  222POPC  H10112666   3.291   4.523   3.860  0.9681 -0.8097  0.0217
  222POPC  C21112667   3.156   4.378   3.978 -0.1540  0.0984  0.1166
  222POPC  H11R12668   3.238   4.304   3.971 -0.8271 -0.5490 -1.2231
  222POPC  H11S12669   3.069   4.313   3.957  0.5138 -1.1577  1.1423
  222POPC  C21212670   3.122   4.439   4.113 -0.1804  0.0752 -0.6955
  222POPC  H12R12671   3.041   4.512   4.090  0.2195  0.6423 -0.3286
  222POPC  H12S12672   3.214   4.490   4.151 -0.6971  0.7187 -0.2770
  222POPC  C21312673   3.080   4.324   4.207 -0.7037 -0.4176  0.0202
  222POPC  H13R12674   3.160   4.250   4.225  0.8246  0.6198 -2.0547
  222POPC  H13S12675   3.001   4.271   4.149 -0.2264 -0.0915 -0.9520
  222POPC  C21412676   3.022   4.377   4.340  0.0415 -0.3357 -0.2733
  222POPC  H14R12677   2.968   4.292   4.388 -0.6893  0.6611  0.7299
  222POPC  H14S12678   2.952   4.461   4.320 -1.7628 -2.1363 -1.9404
  222POPC  C21512679   3.126   4.425   4.443 -0.0724 -0.0204  0.0133
  222POPC  H15R12680   3.180   4.513   4.402 -1.6598  0.7941 -0.4188
  222POPC  H15S12681   3.182   4.339   4.485  0.1650  0.1733  0.0963
  222POPC  C21612682   3.054   4.478   4.569  0.2347  0.9072  0.1073
  222POPC  H16R12683   2.969   4.541   4.535 -0.5545  0.9796  2.1119
  222POPC  H16S12684   3.113   4.550   4.630 -0.1063  1.2119  0.0812
  222POPC  C21712685   3.013   4.365   4.656 -0.2516  1.0453 -0.4229
  222POPC  H17R12686   3.096   4.297   4.683 -2.5125 -1.9837 -0.5382
  222POPC  H17S12687   2.945   4.295   4.602 -0.7526  0.6600  0.6684
  222POPC  C21812688   2.935   4.425   4.778 -0.1337  0.4475  0.1504
  222POPC  H18R12689   2.895   4.340   4.837 -0.2789  0.2041 -0.2928
  222POPC  H18S12690   2.853   4.492   4.747 -1.4411 -0.9075  0.5586
  222POPC  H18T12691   3.005   4.471   4.851 -2.1911  0.1068  2.4782
  222POPC   C3312692   2.452   3.692   3.711 -0.3107 -0.4236  0.0885
  222POPC   H3X12693   2.550   3.648   3.681 -0.2388 -0.8509  0.9254
  222POPC   H3Y12694   2.395   3.599   3.733  1.9046 -1.5849  1.2515
  222POPC   C3412695   2.452   3.788   3.832  0.5041 -0.5965 -0.2156
  222POPC   H4X12696   2.349   3.821   3.855 -0.3403 -3.5198  0.6083
  222POPC   H4Y12697   2.515   3.879   3.820 -1.2140  0.7253  0.4369
  222POPC   C3512698   2.509   3.717   3.946  0.2671 -0.0341  0.4060
  222POPC   H5X12699   2.617   3.695   3.934  0.1265 -0.1608 -0.7251
  222POPC   H5Y12700   2.451   3.623   3.957 -0.3244  0.0585 -1.5819
  222POPC   C3612701   2.502   3.796   4.082  1.1288  0.7417  0.2494
  222POPC   H6X12702   2.557   3.733   4.154 -1.0432 -0.2500  1.1389
  222POPC   H6Y12703   2.395   3.796   4.112  0.1393 -0.9640 -2.7528
  222POPC   C3712704   2.553   3.940   4.084  0.2466  1.0321 -0.3900
  222POPC   H7X12705   2.467   4.004   4.058 -1.3782 -1.1881 -0.7657
  222POPC   H7Y12706   2.625   3.960   4.002 -2.6668  1.7483 -2.9334
  222POPC   C3812707   2.591   3.986   4.226 -0.0980  0.3020  0.0526
  222POPC   H8X12708   2.604   4.097   4.220  1.2405  0.0644 -2.4764
  222POPC   H8Y12709   2.681   3.931   4.259 -1.2132 -0.3687  2.1349
  222POPC   C3912710   2.493   3.944   4.335 -0.5076 -0.2504  0.1414
  222POPC   H9X12711   2.462   3.838   4.346 -0.7645 -0.3186 -1.0784
  222POPC   H9Y12712   2.399   4.002   4.319  0.3811  1.8971  2.1979
  222POPC  C31012713   2.542   3.983   4.472 -0.1185  0.0670 -0.8204
  222POPC  H10X12714   2.636   3.932   4.500 -0.6019 -0.1617  0.4599
  222POPC  H10Y12715   2.463   3.942   4.538 -1.0310  0.3689 -1.7039
  222POPC  C31112716   2.559   4.132   4.504  0.6775  0.0286  0.2537
  222POPC  H11X12717   2.465   4.183   4.473  0.4336 -0.7801 -0.3634
  222POPC  H11Y12718   2.646   4.183   4.459 -1.1164  2.0830 -1.0446
  222POPC  C31212719   2.565   4.143   4.657 -0.0631  0.1460 -0.5667
  222POPC  H12X12720   2.649   4.088   4.705  1.2355  1.6989 -0.9778
  222POPC  H12Y12721   2.470   4.110   4.703 -0.2748  0.0787 -1.0498
  222POPC  C31312722   2.576   4.287   4.712  0.0015  0.3927  0.8006
  222POPC  H13X12723   2.668   4.335   4.674 -0.6311  1.2579  0.3361
  222POPC  H13Y12724   2.589   4.287   4.823  2.9084  1.1055  0.5361
  222POPC  C31412725   2.451   4.378   4.693 -0.8931 -0.0245 -0.4585
  222POPC  H14X12726   2.383   4.351   4.776 -1.3442  2.3959  0.0564
  222POPC  H14Y12727   2.402   4.356   4.595 -1.0969  1.2894 -0.6736
  222POPC  C31512728   2.486   4.529   4.707  0.9418 -0.0602  0.2221
  222POPC  H15X12729   2.516   4.539   4.813  1.5393 -3.8538  0.5492
  222POPC  H15Y12730   2.392   4.585   4.687  0.6345 -1.3956 -2.7230
  222POPC  C31612731   2.597   4.586   4.616  0.6180  0.0371  0.1668
  222POPC  H16X12732   2.607   4.697   4.626  1.4352  0.0685 -0.8363
  222POPC  H16Y12733   2.571   4.566   4.510  0.7500  0.8354 -0.0221
  222POPC  H16Z12734   2.693   4.534   4.636  0.1921 -1.1187 -0.7202
  223POPC     N12735   1.904   4.892   2.403  0.1727  0.2688 -0.0566
  223POPC   C1212736   1.989   4.834   2.511  0.3035 -1.0436  0.2610
  223POPC  H12A12737   2.063   4.912   2.528 -1.6790  0.6715  1.6147
  223POPC  H12B12738   2.026   4.739   2.475  1.4479 -1.2340  1.8356
  223POPC   C1312739   1.789   4.802   2.379  0.0637  0.2778 -0.6242
  223POPC  H13A12740   1.825   4.711   2.331  0.3288  0.5784 -1.0004
  223POPC  H13B12741   1.735   4.776   2.468  0.6297 -2.1591 -0.9094
  223POPC  H13C12742   1.705   4.844   2.325 -2.5717 -0.8446  2.3041
  223POPC   C1412743   1.853   5.028   2.434  0.9449  0.2706  0.4319
  223POPC  H14A12744   1.791   5.031   2.523  0.6883 -0.9696  0.3082
  223POPC  H14B12745   1.927   5.104   2.454 -0.5673  1.9366  0.0239
  223POPC  H14C12746   1.790   5.069   2.356 -0.9833  1.5373  2.5069
  223POPC   C1512747   1.988   4.908   2.277 -0.0161  0.1578 -0.4633
  223POPC  H15A12748   1.949   4.981   2.207  0.3717  0.6286 -0.1985
  223POPC  H15B12749   2.003   4.811   2.232  1.9506 -0.5146  1.5017
  223POPC  H15C12750   2.084   4.948   2.304 -0.0558 -0.8650  1.2606
  223POPC   C1112751   1.924   4.818   2.658  0.3765  0.1277  0.5022
  223POPC  H11A12752   1.977   4.734   2.708  0.5078  0.2796  0.6166
  223POPC  H11B12753   1.822   4.777   2.641  0.5322  1.0666 -3.8263
  223POPC     P12754   2.062   4.987   2.795 -0.3069  0.2263  0.1761
  223POPC   O1312755   2.033   5.109   2.878  0.8154  0.2603  0.1861
  223POPC   O1412756   2.167   5.001   2.693 -0.0126  0.6956  0.2169
  223POPC   O1212757   1.929   4.938   2.731 -0.3197 -0.1724  0.1357
  223POPC   O1112758   2.103   4.862   2.884 -0.0664 -0.4257 -0.0997
  223POPC    C112759   2.034   4.826   3.006  0.2534  0.3259 -0.6334
  223POPC    HA12760   2.028   4.717   3.022 -1.4394  0.6501  1.3799
  223POPC    HB12761   1.927   4.852   2.992 -0.4189 -2.4997 -1.3601
  223POPC    C212762   2.079   4.915   3.124 -0.3896  0.5082  0.0027
  223POPC    HS12763   2.036   5.017   3.114 -3.3959 -0.6531  0.0638
  223POPC   O2112764   2.228   4.924   3.129  0.0534 -0.2991 -0.0199
  223POPC   C2112765   2.288   5.032   3.184 -0.0875 -0.8504  0.1528
  223POPC   O2212766   2.224   5.119   3.233  0.5254  0.0891  0.0576
  223POPC   C2212767   2.441   5.030   3.187 -0.1835  0.5420  0.1184
  223POPC   H2R12768   2.464   5.052   3.080  2.0009  1.4098  0.7162
  223POPC   H2S12769   2.475   4.928   3.211 -1.0988  0.0403 -0.6357
  223POPC    C312770   2.027   4.853   3.256 -0.4002  0.3810  0.4731
  223POPC    HX12771   2.083   4.758   3.270  0.3209  0.5538 -1.0737
  223POPC    HY12772   1.921   4.819   3.249 -0.2783  0.0434  0.2261
  223POPC   O3112773   2.052   4.929   3.371 -0.6505 -0.5847 -0.0555
  223POPC   C3112774   1.967   5.020   3.407 -0.1072 -0.2794 -0.5697
  223POPC   O3212775   1.865   5.052   3.348 -0.0137  0.1093 -0.4562
  223POPC   C3212776   2.031   5.091   3.528 -0.0730 -0.2661 -0.6250
  223POPC   H2X12777   2.109   5.155   3.483 -2.4800  3.2397 -0.1826
  223POPC   H2Y12778   2.074   5.022   3.604 -0.6673  1.6498  1.5443
  223POPC   C2312779   2.510   5.144   3.274  0.6879  0.0153  1.0438
  223POPC   H3R12780   2.476   5.248   3.254  1.3725  0.1643  0.6508
  223POPC   H3S12781   2.612   5.132   3.233 -0.0661  0.1276 -0.9732
  223POPC   C2412782   2.500   5.107   3.430  0.0286 -0.3378  0.3707
  223POPC   H4R12783   2.518   4.999   3.448  0.9920 -0.7197 -2.4195
  223POPC   H4S12784   2.399   5.137   3.463  0.7714  1.1368  1.4195
  223POPC   C2512785   2.598   5.209   3.504  0.2815  0.4453 -0.0882
  223POPC   H5R12786   2.582   5.308   3.458  0.0259 -0.3384 -1.7398
  223POPC   H5S12787   2.702   5.181   3.480 -0.9786 -3.3980 -1.9560
  223POPC   C2612788   2.561   5.227   3.653  0.1175  0.5676 -0.2525
  223POPC   H6R12789   2.645   5.282   3.701 -1.5789  1.4189  1.9115
  223POPC   H6S12790   2.560   5.130   3.708 -0.2495  0.7949  0.1496
  223POPC   C2712791   2.431   5.309   3.667 -0.2128 -0.5389 -0.1562
  223POPC   H7R12792   2.336   5.257   3.645 -0.7353  0.0025  0.7843
  223POPC   H7S12793   2.426   5.406   3.613  0.1913  0.5665  1.7071
  223POPC   C2812794   2.413   5.354   3.820  0.1413 -0.4760  0.0353
  223POPC   H8R12795   2.322   5.416   3.803 -0.6287 -1.2164  1.2667
  223POPC   H8S12796   2.504   5.411   3.847  1.4736 -2.6910  0.5239
  223POPC   C2912797   2.391   5.232   3.906  0.4544 -1.3779  0.0764
  223POPC   H9112798   2.299   5.180   3.872 -0.6453  1.1523 -1.0992
  223POPC  C21012799   2.460   5.201   4.016  0.3044  0.3829  0.5556
  223POPC  H10112800   2.420   5.118   4.076 -1.1878  0.0075 -0.8793
  223POPC  C21112801   2.593   5.252   4.066 -0.5702 -0.5345  0.1619
  223POPC  H11R12802   2.605   5.348   4.012 -1.3653 -0.3785  0.2443
  223POPC  H11S12803   2.679   5.187   4.039 -1.2792 -2.0369  1.3278
  223POPC  C21212804   2.597   5.278   4.222  0.1211  0.4310 -0.0293
  223POPC  H12R12805   2.532   5.361   4.256  0.6717  0.3238  1.3591
  223POPC  H12S12806   2.702   5.311   4.236  0.8448 -0.6297 -2.4099
  223POPC  C21312807   2.567   5.162   4.313  0.1734  0.4356 -0.1563
  223POPC  H13R12808   2.475   5.112   4.275 -0.4774 -1.6228  3.6576
  223POPC  H13S12809   2.542   5.188   4.419 -0.5322 -0.9414  0.0338
  223POPC  C21412810   2.685   5.059   4.314 -0.2911 -0.1667  0.3498
  223POPC  H14R12811   2.766   5.108   4.372 -0.5785 -1.0587  1.5522
  223POPC  H14S12812   2.712   5.041   4.208 -4.1361  1.6626 -1.1282
  223POPC  C21512813   2.668   4.926   4.387 -0.0353  0.1669 -0.4068
  223POPC  H15R12814   2.602   4.850   4.339 -3.5031  3.1408 -0.7957
  223POPC  H15S12815   2.613   4.947   4.481  1.2738 -0.0592  0.4231
  223POPC  C21612816   2.800   4.874   4.436 -0.4542  0.5400  0.3438
  223POPC  H16R12817   2.794   4.772   4.479 -1.5249  0.5434  0.2395
  223POPC  H16S12818   2.835   4.941   4.517 -1.1783  2.0609 -0.5618
  223POPC  C21712819   2.918   4.868   4.341 -0.2306  0.4491  0.9309
  223POPC  H17R12820   2.943   4.965   4.294  1.2287 -0.1958  0.3084
  223POPC  H17S12821   2.896   4.803   4.253  1.2678 -0.1335  0.9461
  223POPC  C21812822   3.043   4.807   4.404 -0.6872 -0.5345  0.1478
  223POPC  H18R12823   3.113   4.761   4.332 -1.4182  0.5576 -1.3002
  223POPC  H18S12824   3.022   4.726   4.477  1.4464 -0.4725  0.9069
  223POPC  H18T12825   3.091   4.895   4.453 -0.3070  0.6018 -2.1504
  223POPC   C3312826   1.936   5.190   3.595 -0.3375  0.2748 -0.3309
  223POPC   H3X12827   1.854   5.138   3.649  0.0949  0.2228  0.2799
  223POPC   H3Y12828   1.877   5.250   3.521 -2.0800 -1.8440 -0.7453
  223POPC   C3412829   2.010   5.274   3.698 -0.3319 -0.3765 -0.0320
  223POPC   H4X12830   2.058   5.363   3.650 -1.2230 -1.2948 -2.8146
  223POPC   H4Y12831   2.078   5.201   3.747 -2.8285 -2.3793  0.6610
  223POPC   C3512832   1.923   5.316   3.823 -0.3735 -0.0453  0.4888
  223POPC   H5X12833   1.872   5.221   3.852 -1.0492 -0.7779 -2.7309
  223POPC   H5Y12834   1.841   5.385   3.794 -0.2962 -1.0830 -2.5661
  223POPC   C3612835   1.996   5.377   3.946  0.0325  0.1123 -0.0357
  223POPC   H6X12836   2.027   5.482   3.931  0.2789 -0.2503 -2.3635
  223POPC   H6Y12837   2.089   5.323   3.976 -1.8083 -0.4110  6.2283
  223POPC   C3712838   1.914   5.355   4.074 -0.6086  0.8533  0.7543
  223POPC   H7X12839   1.986   5.377   4.155 -2.1698  2.3812  1.7997
  223POPC   H7Y12840   1.875   5.253   4.095  0.2002  0.4871  0.5202
  223POPC   C3812841   1.785   5.442   4.077  0.1400  0.4728 -0.1741
  223POPC   H8X12842   1.709   5.385   4.020  0.0507  0.3408  0.0739
  223POPC   H8Y12843   1.805   5.535   4.020  1.3832  0.6958  0.5644
  223POPC   C3912844   1.725   5.465   4.219 -0.1071 -0.0103  0.1632
  223POPC   H9X12845   1.699   5.368   4.267  0.8473  0.6519  2.1142
  223POPC   H9Y12846   1.629   5.519   4.206  0.9536  1.7476 -0.7876
  223POPC  C31012847   1.811   5.547   4.322  0.3157  0.4403 -0.0331
  223POPC  H10X12848   1.903   5.486   4.337 -0.4333 -1.4106 -2.4072
  223POPC  H10Y12849   1.759   5.535   4.420  0.0438 -2.3181 -0.4427
  223POPC  C31112850   1.849   5.686   4.271  0.4615  0.4531  0.1861
  223POPC  H11X12851   1.759   5.751   4.265  1.1771  1.6718  1.7770
  223POPC  H11Y12852   1.893   5.673   4.170 -0.2983 -3.1390  0.2150
  223POPC  C31212853   1.944   5.763   4.366  0.3346  0.6697 -0.3868
  223POPC  H12X12854   1.953   5.865   4.322  1.5018  1.1425  0.8653
  223POPC  H12Y12855   2.051   5.734   4.377  0.7111  1.4933 -1.6410
  223POPC  C31312856   1.884   5.778   4.508 -0.0200  0.3857 -0.1724
  223POPC  H13X12857   1.937   5.694   4.558 -0.3868  0.3637  0.1809
  223POPC  H13Y12858   1.775   5.768   4.489 -0.0913  0.1012  0.3717
  223POPC  C31412859   1.920   5.909   4.570  0.6407 -0.0853 -0.0535
  223POPC  H14X12860   1.883   5.996   4.512 -2.3865  0.2257  2.1275
  223POPC  H14Y12861   2.030   5.914   4.570  0.5953  1.7956 -1.0273
  223POPC  C31512862   1.884   5.926   4.717  0.0457  0.0544 -0.5809
  223POPC  H15X12863   1.778   5.958   4.725  0.2932  0.5630  0.8410
  223POPC  H15Y12864   1.942   6.018   4.742  0.0619  0.0312 -0.5328
  223POPC  C31612865   1.911   5.809   4.808  0.0404 -0.4512  0.2929
  223POPC  H16X12866   2.018   5.779   4.810  0.3407  0.4699 -0.7035
  223POPC  H16Y12867   1.857   5.716   4.780  0.1635 -0.8659  1.3770
  223POPC  H16Z12868   1.878   5.835   4.911  0.5275 -0.4550  0.4552
  224POPC     N12869   4.842   4.942   2.726 -0.0123 -0.0636  0.4146
  224POPC   C1212870   4.736   5.037   2.758 -0.0972  0.1456 -0.5928
  224POPC  H12A12871   4.746   5.073   2.859  0.7232 -2.0518  0.1591
  224POPC  H12B12872   4.643   4.981   2.756 -0.4690  0.7461 -0.5316
  224POPC   C1312873   4.978   5.009   2.752 -0.6201  0.1874 -0.2736
  224POPC  H13A12874   4.985   5.040   2.856  1.5682 -2.1981  0.3855
  224POPC  H13B12875   5.059   4.941   2.732  1.1170  2.1436 -0.2174
  224POPC  H13C12876   5.004   5.096   2.694  1.2966  0.6884  1.2245
  224POPC   C1412877   4.844   4.816   2.800 -0.7573 -0.4066  0.8273
  224POPC  H14A12878   4.783   4.736   2.760  0.0036 -0.4495 -0.2827
  224POPC  H14B12879   4.942   4.774   2.816 -0.5629  0.3659  1.7927
  224POPC  H14C12880   4.811   4.832   2.902  2.8540  0.2699  2.0345
  224POPC   C1512881   4.833   4.904   2.581  0.4654  0.1188  1.0421
  224POPC  H15A12882   4.871   4.989   2.527  2.6693 -0.9718  0.7932
  224POPC  H15B12883   4.729   4.890   2.553  0.3758  1.4328  0.6627
  224POPC  H15C12884   4.903   4.823   2.568 -1.0727 -1.2089  0.6848
  224POPC   C1112885   4.704   5.166   2.671  0.1449  0.5128  0.2583
  224POPC  H11A12886   4.609   5.201   2.717  0.1226  2.2042 -0.9583
  224POPC  H11B12887   4.676   5.129   2.570  0.8301  2.6056 -0.7657
  224POPC     P12888   4.830   5.349   2.809  0.0482 -0.2771 -0.3625
  224POPC   O1312889   4.750   5.468   2.801  0.1550 -0.7733  0.3938
  224POPC   O1412890   4.972   5.380   2.832 -0.9103  0.5001 -0.2967
  224POPC   O1212891   4.805   5.264   2.679 -0.1659 -0.1064  0.3093
  224POPC   O1112892   4.770   5.267   2.924 -0.3442  0.6065  0.7220
  224POPC    C112893   4.656   5.302   3.005 -1.0920  0.5854 -0.1766
  224POPC    HA12894   4.623   5.207   3.053  3.0515 -0.8103  0.2755
  224POPC    HB12895   4.570   5.344   2.948 -1.3959  1.4013  0.8361
  224POPC    C212896   4.700   5.406   3.116  0.1148 -0.1986 -0.2732
  224POPC    HS12897   4.750   5.492   3.067  2.4547  0.1706  2.5351
  224POPC   O2112898   4.792   5.332   3.201  0.1979 -0.4360  0.7605
  224POPC   C2112899   4.898   5.397   3.259  0.1586 -0.7780 -0.4491
  224POPC   O2212900   4.923   5.514   3.240 -0.2735  0.0165  0.5280
  224POPC   C2212901   4.965   5.308   3.360 -0.3300 -0.8112  0.0246
  224POPC   H2R12902   5.069   5.347   3.366 -0.0627 -1.1536 -1.8278
  224POPC   H2S12903   4.983   5.204   3.324  0.5469  0.2045 -2.6730
  224POPC    C312904   4.581   5.467   3.187  0.2316 -0.0288 -1.1479
  224POPC    HX12905   4.531   5.535   3.115 -0.6049  2.2159  1.3822
  224POPC    HY12906   4.632   5.518   3.272  0.0903 -1.9659  0.1647
  224POPC   O3112907   4.487   5.366   3.233 -0.3136 -0.6289  0.3749
  224POPC   C3112908   4.494   5.303   3.353 -0.7142 -0.1480 -0.2766
  224POPC   O3212909   4.563   5.341   3.447 -0.4487 -0.4853 -0.3360
  224POPC   C3212910   4.411   5.179   3.344 -0.3584  0.4325 -1.1762
  224POPC   H2X12911   4.452   5.106   3.271  1.7955 -0.8495  1.1973
  224POPC   H2Y12912   4.311   5.218   3.314 -0.2401  2.6547  0.9412
  224POPC   C2312913   4.906   5.313   3.503  0.8133 -0.1520  0.0087
  224POPC   H3R12914   4.939   5.222   3.557  1.9389  0.5815  0.5759
  224POPC   H3S12915   4.796   5.299   3.492  0.5843  1.3798  0.2448
  224POPC   C2412916   4.951   5.432   3.583  0.4581  0.1511  0.5132
  224POPC   H4R12917   4.914   5.528   3.541 -0.4634 -0.1228  0.6793
  224POPC   H4S12918   5.062   5.428   3.589  0.6945 -0.1543 -2.5364
  224POPC   C2512919   4.900   5.430   3.728  0.2917  0.7617 -0.2459
  224POPC   H5R12920   4.936   5.336   3.777  1.5352  0.3764 -1.8104
  224POPC   H5S12921   4.789   5.436   3.724  0.3519  1.4706 -1.1541
  224POPC   C2612922   4.952   5.548   3.809  0.0866 -0.0195  0.0268
  224POPC   H6R12923   4.909   5.640   3.766 -0.3051  0.0025  0.4616
  224POPC   H6S12924   5.063   5.553   3.797 -0.0656  1.4901 -0.9273
  224POPC   C2712925   4.914   5.548   3.958  0.0103  0.5261  0.7166
  224POPC   H7R12926   4.952   5.455   4.007  0.9157  0.3015 -0.3662
  224POPC   H7S12927   4.805   5.529   3.957 -0.3300  2.3090 -1.1640
  224POPC   C2812928   4.941   5.683   4.019  0.1570 -0.0756  0.2446
  224POPC   H8R12929   4.868   5.759   3.984  1.5377  0.5940 -1.2762
  224POPC   H8S12930   5.040   5.722   3.988  0.5847 -0.5058  1.0442
  224POPC   C2912931   4.938   5.659   4.169 -0.3911  0.0649  0.6560
  224POPC   H9112932   5.038   5.632   4.207 -0.3808 -1.0502 -0.1310
  224POPC  C21012933   4.832   5.680   4.248 -0.0239 -0.0701 -0.6176
  224POPC  H10112934   4.843   5.646   4.352  0.4775 -1.8051 -1.2018
  224POPC  C21112935   4.693   5.715   4.207  0.7411  0.3112 -0.0777
  224POPC  H11R12936   4.686   5.729   4.097  1.9432 -1.1662 -0.3838
  224POPC  H11S12937   4.666   5.813   4.251  0.8852 -1.0389  3.3514
  224POPC  C21212938   4.593   5.606   4.237 -0.7297  0.0497 -0.4797
  224POPC  H12R12939   4.552   5.612   4.340 -1.9150  0.1171 -0.9424
  224POPC  H12S12940   4.637   5.505   4.223 -2.3103 -0.7538  0.1878
  224POPC  C21312941   4.473   5.618   4.135  0.1052 -0.2687  0.6989
  224POPC  H13R12942   4.507   5.601   4.030 -0.8100  1.4961  0.0743
  224POPC  H13S12943   4.429   5.720   4.135  2.3494  0.7537  0.1679
  224POPC  C21412944   4.354   5.522   4.162  0.1820 -0.2152 -0.0986
  224POPC  H14R12945   4.352   5.499   4.271 -1.1492  0.2273 -0.0166
  224POPC  H14S12946   4.363   5.429   4.103 -0.5374 -0.8740  0.7890
  224POPC  C21512947   4.214   5.584   4.137 -0.3017 -0.5606  0.3691
  224POPC  H15R12948   4.203   5.637   4.040 -3.5499  2.0688  1.9824
  224POPC  H15S12949   4.182   5.662   4.210 -1.7045  1.5082 -2.2589
  224POPC  C21612950   4.104   5.482   4.134 -0.9187  0.6287 -0.7516
  224POPC  H16R12951   4.005   5.531   4.143 -0.6898  0.8895  0.4890
  224POPC  H16S12952   4.119   5.405   4.212 -0.4245 -0.4977 -1.9210
  224POPC  C21712953   4.097   5.394   4.005  0.3449 -0.2090 -0.0336
  224POPC  H17R12954   4.187   5.334   3.981  0.2879 -0.2280 -0.2108
  224POPC  H17S12955   4.081   5.475   3.930  2.7684  1.3411  1.0153
  224POPC  C21812956   3.985   5.301   3.995  0.7015  0.3043  0.1960
  224POPC  H18R12957   3.886   5.347   4.016  0.8742  0.3029  1.0800
  224POPC  H18S12958   4.000   5.227   4.077 -0.0243 -0.0478  0.0238
  224POPC  H18T12959   3.980   5.247   3.898 -1.9785  0.0960  0.3541
  224POPC   C3312960   4.392   5.108   3.487  0.5659  0.2077 -0.3849
  224POPC   H3X12961   4.398   5.194   3.557  2.2223 -1.1972  1.3119
  224POPC   H3Y12962   4.476   5.038   3.506 -1.1521 -2.4437 -2.0112
  224POPC   C3412963   4.253   5.050   3.507 -1.1360  0.5948  0.1767
  224POPC   H4X12964   4.239   4.969   3.432  1.2568  1.8790 -1.8186
  224POPC   H4Y12965   4.177   5.124   3.477 -1.3062  0.4312  0.2051
  224POPC   C3512966   4.225   4.997   3.652  0.4279  0.6931  0.2389
  224POPC   H5X12967   4.265   5.074   3.721  1.1986  0.4100  0.1191
  224POPC   H5Y12968   4.291   4.908   3.661  0.6131  0.6250 -1.5005
  224POPC   C3612969   4.076   4.962   3.684  0.8033 -0.0159  0.1641
  224POPC   H6X12970   4.031   4.888   3.615 -1.4778  1.5715 -0.1524
  224POPC   H6Y12971   4.018   5.057   3.678 -0.6270 -0.8535  0.2646
  224POPC   C3712972   4.047   4.917   3.831  0.3793  0.3912 -0.1183
  224POPC   H7X12973   3.938   4.928   3.843  0.4506 -0.0306  0.9626
  224POPC   H7Y12974   4.095   4.993   3.896 -0.5017  0.6264  0.2590
  224POPC   C3812975   4.099   4.779   3.860 -0.3598 -0.0879  0.4774
  224POPC   H8X12976   4.207   4.760   3.844 -0.1778  1.8897 -1.0921
  224POPC   H8Y12977   4.049   4.709   3.789 -2.3122  3.6083 -2.1518
  224POPC   C3912978   4.056   4.739   3.999 -0.4871  0.0107  0.1880
  224POPC   H9X12979   3.946   4.732   4.007 -0.4368 -1.4607 -0.1470
  224POPC   H9Y12980   4.094   4.825   4.058  2.0906 -0.0444 -1.2455
  224POPC  C31012981   4.115   4.607   4.055  0.9591  0.1476  0.1429
  224POPC  H10X12982   4.224   4.595   4.034  1.4212  2.1240  1.2035
  224POPC  H10Y12983   4.069   4.514   4.015  1.2164 -1.1875  2.7184
  224POPC  C31112984   4.083   4.588   4.205 -0.5428 -0.3899 -0.0952
  224POPC  H11X12985   4.095   4.480   4.229 -0.7778 -0.1003  1.4071
  224POPC  H11Y12986   3.977   4.618   4.216 -0.1465  1.6692 -1.3324
  224POPC  C31212987   4.177   4.678   4.301 -0.2059 -0.1248 -0.0919
  224POPC  H12X12988   4.151   4.785   4.287  0.7786  0.4200  1.9475
  224POPC  H12Y12989   4.282   4.653   4.276 -0.2638 -1.8243  1.2106
  224POPC  C31312990   4.147   4.665   4.455  0.2730 -0.1072  0.1063
  224POPC  H13X12991   4.235   4.698   4.514  0.8277  0.5318 -1.0437
  224POPC  H13Y12992   4.124   4.558   4.475 -3.7423  0.2577 -1.5136
  224POPC  C31412993   4.022   4.744   4.515 -0.1822 -0.0941  1.2553
  224POPC  H14X12994   3.935   4.725   4.449 -0.2933 -0.2027  1.4345
  224POPC  H14Y12995   4.044   4.853   4.510 -0.0107 -0.1157  1.5217
  224POPC  C31512996   3.997   4.699   4.654 -0.0493 -0.3494 -0.0278
  224POPC  H15X12997   4.095   4.675   4.699  0.0353 -0.9838 -0.5262
  224POPC  H15Y12998   3.933   4.608   4.661 -2.0406  0.6231 -3.1682
  224POPC  C31612999   3.935   4.812   4.737  0.3743 -0.1033  0.5890
  224POPC  H16X13000   3.932   4.780   4.843 -1.6909 -1.1768  0.2364
  224POPC  H16Y13001   3.829   4.833   4.712  0.6020  1.7322  1.0184
  224POPC  H16Z13002   3.990   4.908   4.724 -2.5850  1.5536 -0.4728
  225POPC     N13003   0.308   3.909   2.527 -0.1556 -0.2184 -0.2878
  225POPC   C1213004   0.355   3.875   2.669 -0.1169  0.0678  0.3268
  225POPC  H12A13005   0.461   3.858   2.662  0.2246  2.2912 -0.7237
  225POPC  H12B13006   0.328   3.777   2.706 -0.8358  0.6664  1.4485
  225POPC   C1313007   0.379   4.018   2.463 -0.2816  0.3616  0.2829
  225POPC  H13A13008   0.334   4.032   2.366  2.0168 -1.1980 -1.0992
  225POPC  H13B13009   0.384   4.110   2.521  1.2202  0.2624  0.3373
  225POPC  H13C13010   0.480   3.989   2.441 -0.5620  0.6608 -1.5848
  225POPC   C1413011   0.331   3.787   2.443  0.4255 -0.5512  0.4672
  225POPC  H14A13012   0.297   3.809   2.343  0.8017  1.1942  0.6920
  225POPC  H14B13013   0.427   3.737   2.434  0.2572 -0.6171 -1.4515
  225POPC  H14C13014   0.267   3.705   2.470  0.1438 -0.1551  1.0160
  225POPC   C1513015   0.159   3.933   2.522  0.0102 -0.2762 -0.1812
  225POPC  H15A13016   0.112   3.912   2.427 -1.1142 -1.1941  0.5556
  225POPC  H15B13017   0.143   4.038   2.543 -0.7433  0.4638 -3.7743
  225POPC  H15C13018   0.113   3.869   2.596  0.5159 -0.8965 -0.3939
  225POPC   C1113019   0.337   3.973   2.786 -0.2205 -0.8174  0.2004
  225POPC  H11A13020   0.401   3.936   2.869  2.2603  3.1492  0.3045
  225POPC  H11B13021   0.230   3.977   2.816 -0.1593 -4.0369  1.2784
  225POPC     P13022   0.317   4.234   2.736 -0.2498  0.0880 -0.0746
  225POPC   O1313023   0.175   4.206   2.695  0.1522  0.1994  0.3166
  225POPC   O1413024   0.390   4.323   2.646 -0.0908 -0.2109  0.2707
  225POPC   O1213025   0.397   4.097   2.759  0.1757  0.0150  0.5886
  225POPC   O1113026   0.310   4.301   2.883 -0.2070  0.5136 -0.5195
  225POPC    C113027   0.431   4.297   2.962  0.8420  0.4427  0.4999
  225POPC    HA13028   0.431   4.381   3.035  0.4863  0.1249  0.8740
  225POPC    HB13029   0.526   4.301   2.904  1.9759 -1.1677  2.1456
  225POPC    C213030   0.435   4.173   3.056 -0.0152 -0.6655 -0.3034
  225POPC    HS13031   0.393   4.081   3.011  2.2241 -0.8728 -2.1376
  225POPC   O2113032   0.353   4.207   3.169 -0.0605 -0.5690 -0.1176
  225POPC   C2113033   0.215   4.206   3.150 -0.3218 -0.0343 -0.4078
  225POPC   O2213034   0.157   4.146   3.066 -0.2853  0.2700  0.5407
  225POPC   C2213035   0.148   4.292   3.258 -0.3942 -0.4794 -0.1108
  225POPC   H2R13036   0.078   4.367   3.213 -2.1982 -0.6415  2.2295
  225POPC   H2S13037   0.227   4.347   3.314  2.5315 -2.2475 -2.2091
  225POPC    C313038   0.576   4.142   3.124 -0.6940 -0.5205 -0.0394
  225POPC    HX13039   0.618   4.237   3.163  2.1241 -2.3560  1.7316
  225POPC    HY13040   0.651   4.103   3.053  0.6932  0.3504  0.9066
  225POPC   O3113041   0.557   4.045   3.230 -0.1588  0.1727 -0.4230
  225POPC   C3113042   0.541   3.920   3.185  0.1288 -0.0441  0.2806
  225POPC   O3213043   0.531   3.885   3.064  0.4573 -0.2028  0.3065
  225POPC   C3213044   0.510   3.826   3.308  0.0130 -0.1869 -0.0459
  225POPC   H2X13045   0.599   3.766   3.337  1.2276  1.3234 -0.5088
  225POPC   H2Y13046   0.426   3.762   3.272 -1.6342  1.3107  0.9924
  225POPC   C2313047   0.072   4.215   3.360  0.3254  0.1524  0.8101
  225POPC   H3R13048   0.004   4.143   3.310  0.6544  0.5879 -0.2913
  225POPC   H3S13049   0.003   4.279   3.419  0.4226 -0.6978  1.8796
  225POPC   C2413050   0.151   4.131   3.463  0.0866  0.2618  0.0836
  225POPC   H4R13051   0.236   4.187   3.508  0.7694  0.6308 -1.6083
  225POPC   H4S13052   0.182   4.034   3.419  0.0340  0.2760  0.0150
  225POPC   C2513053   0.059   4.091   3.581  0.2034  0.0197  0.0292
  225POPC   H5R13054  -0.012   4.023   3.529  1.3489  0.0120 -1.6128
  225POPC   H5S13055   0.007   4.184   3.613 -2.6566 -1.9025  1.4324
  225POPC   C2613056   0.144   4.035   3.691  0.3467  0.0466 -0.4079
  225POPC   H6R13057   0.196   4.119   3.743 -0.5303 -1.4785  3.2752
  225POPC   H6S13058   0.219   3.960   3.659 -0.2196 -0.1972 -1.1786
  225POPC   C2713059   0.058   3.969   3.802 -0.8390 -0.4546  0.0408
  225POPC   H7R13060  -0.021   3.908   3.754 -1.2891 -1.0334  1.4633
  225POPC   H7S13061   0.021   4.056   3.860  0.5028  0.1954 -0.0400
  225POPC   C2813062   0.147   3.876   3.893  0.7618 -0.6316  0.2882
  225POPC   H8R13063   0.093   3.857   3.989 -1.0143 -3.2573 -1.0997
  225POPC   H8S13064   0.243   3.927   3.914  1.1981 -1.6836  0.9241
  225POPC   C2913065   0.183   3.750   3.816 -0.8554 -0.5848  0.2566
  225POPC   H9113066   0.279   3.741   3.764 -0.0127 -1.7479  1.9252
  225POPC  C21013067   0.108   3.641   3.803  0.2960 -0.1314 -0.5856
  225POPC  H10113068   0.143   3.557   3.741 -1.3747  0.1216 -1.9516
  225POPC  C21113069   6.408   3.617   3.839 -0.1145 -0.2120 -0.1700
  225POPC  H11R13070   6.333   3.647   3.762 -2.9628 -1.4347  1.9351
  225POPC  H11S13071   6.385   3.685   3.924  1.8536  2.3399 -1.5358
  225POPC  C21213072   6.373   3.477   3.893 -0.1764  0.2457 -0.3006
  225POPC  H12R13073   6.346   3.401   3.816  1.7957 -2.4012  1.4381
  225POPC  H12S13074   6.291   3.484   3.967 -0.3347 -0.9505 -0.3494
  225POPC  C21313075   0.039   3.397   3.965 -0.3806 -0.1217  0.3685
  225POPC  H13R13076   0.090   3.470   4.031 -0.3939 -1.2167  1.6253
  225POPC  H13S13077   0.115   3.358   3.894 -0.6532  0.9474 -0.5501
  225POPC  C21413078   6.426   3.281   4.050  0.0472 -0.1788 -0.4879
  225POPC  H14R13079   6.396   3.210   3.970  3.4444  1.0530 -3.1234
  225POPC  H14S13080   6.339   3.306   4.115  1.3375  0.8047  0.9377
  225POPC  C21513081   0.086   3.194   4.134  0.6350 -0.3725 -0.8272
  225POPC  H15R13082   0.108   3.257   4.222 -2.1553 -0.9759  0.4404
  225POPC  H15S13083   0.178   3.194   4.071  0.9579  0.2566 -0.3599
  225POPC  C21613084   0.049   3.049   4.168  0.0883  0.4632 -0.1167
  225POPC  H16R13085   0.063   2.990   4.074  0.1153 -0.2162  0.3118
  225POPC  H16S13086  -0.060   3.052   4.186 -0.2604  2.2622 -2.0927
  225POPC  C21713087   0.120   2.973   4.277  0.3742  0.1060  0.1105
  225POPC  H17R13088   0.054   2.891   4.312  1.0554 -0.4754  0.0813
  225POPC  H17S13089   0.135   3.037   4.366 -0.0767  1.2104 -0.5946
  225POPC  C21813090   0.246   2.899   4.237  0.2464 -0.1728 -0.2779
  225POPC  H18R13091   0.323   2.974   4.211  0.8381 -0.6160  0.1615
  225POPC  H18S13092   0.221   2.811   4.174 -1.5410 -0.7399  1.1335
  225POPC  H18T13093   0.300   2.865   4.328  0.8909  2.4636  0.4187
  225POPC   C3313094   0.457   3.905   3.432  0.3042  0.5414  0.3586
  225POPC   H3X13095   0.394   3.842   3.497  3.5444 -2.8482  0.5680
  225POPC   H3Y13096   0.397   3.988   3.389  2.1811  1.0903 -1.3948
  225POPC   C3413097   0.558   3.975   3.524  0.3002 -0.0812 -1.0501
  225POPC   H4X13098   0.651   3.990   3.465  1.4172  0.3867  0.7429
  225POPC   H4Y13099   0.589   3.905   3.603  2.7692  2.6944  0.6359
  225POPC   C3513100   0.503   4.100   3.593 -0.1112 -0.5938  0.1938
  225POPC   H5X13101   0.418   4.072   3.658  1.5230  0.7267  3.0567
  225POPC   H5Y13102   0.473   4.173   3.514 -0.1067 -0.8489 -0.0441
  225POPC   C3613103   0.604   4.155   3.688  0.5313 -0.2893 -0.2767
  225POPC   H6X13104   0.709   4.158   3.653  0.6755 -0.5957  0.1124
  225POPC   H6Y13105   0.598   4.091   3.779 -0.3033  2.2228  1.5400
  225POPC   C3713106   0.576   4.298   3.732  0.3369 -0.8741  0.9392
  225POPC   H7X13107   0.470   4.300   3.765 -0.1121  1.7181 -0.4158
  225POPC   H7Y13108   0.587   4.360   3.641 -2.2394 -0.0326  1.1173
  225POPC   C3813109   0.661   4.331   3.851  0.8448 -0.2679  0.1862
  225POPC   H8X13110   0.765   4.330   3.813  0.3046  1.5395 -1.4802
  225POPC   H8Y13111   0.636   4.252   3.925 -1.5186 -0.1094 -0.3544
  225POPC   C3913112   0.632   4.466   3.905 -0.4196  0.1493 -0.0275
  225POPC   H9X13113   0.527   4.452   3.938  0.0514  1.4316  2.1636
  225POPC   H9Y13114   0.639   4.536   3.819 -0.1697  0.3273  0.1360
  225POPC  C31013115   0.726   4.506   4.017  0.3900  0.3821  0.4417
  225POPC  H10X13116   0.777   4.420   4.066 -0.1108  1.7314  3.4857
  225POPC  H10Y13117   0.684   4.569   4.098  3.4900  0.1885  2.3684
  225POPC  C31113118   0.835   4.595   3.954 -0.2707 -0.5841 -0.3072
  225POPC  H11X13119   0.792   4.697   3.940 -1.0350 -0.7435  0.7036
  225POPC  H11Y13120   0.851   4.548   3.855 -1.9431 -1.1108 -0.3570
  225POPC  C31213121   0.965   4.612   4.033 -0.1297 -0.1908  0.1913
  225POPC  H12X13122   1.034   4.677   3.976  0.5451  1.0004  2.2724
  225POPC  H12Y13123   1.011   4.511   4.029 -1.1660 -0.6740 -0.0346
  225POPC  C31313124   0.960   4.670   4.173  0.2606 -0.0601 -1.0482
  225POPC  H13X13125   0.915   4.595   4.242  1.4862 -0.3509 -0.5373
  225POPC  H13Y13126   0.903   4.765   4.180  1.6027  0.6625  1.3284
  225POPC  C31413127   1.097   4.684   4.244 -0.0773  0.4938  0.0336
  225POPC  H14X13128   1.147   4.587   4.222 -0.8630  0.7050 -3.1589
  225POPC  H14Y13129   1.068   4.689   4.351 -3.3040 -0.4170 -0.6825
  225POPC  C31513130   1.181   4.803   4.195  0.0202  0.0582 -0.0296
  225POPC  H15X13131   1.114   4.892   4.201 -0.7705 -0.6039  1.5796
  225POPC  H15Y13132   1.208   4.785   4.089  2.6552  1.4973  0.2852
  225POPC  C31613133   1.306   4.828   4.292 -0.9324 -0.1196 -0.0071
  225POPC  H16X13134   1.386   4.754   4.270 -0.1839  0.9981 -1.1776
  225POPC  H16Y13135   1.278   4.827   4.400 -0.6696 -0.0394  0.0626
  225POPC  H16Z13136   1.351   4.926   4.264  0.9109 -0.7156  0.7248
  226POPC     N13137   2.706   5.057   2.616  0.2600 -0.0517  0.4724
  226POPC   C1213138   2.669   5.092   2.759  0.1094  0.5381  0.5126
  226POPC  H12A13139   2.585   5.031   2.786  0.1065 -0.7312 -2.0669
  226POPC  H12B13140   2.636   5.194   2.763 -0.4276  0.3688  0.4635
  226POPC   C1313141   2.590   5.027   2.528 -0.1528  0.0283 -1.1889
  226POPC  H13A13142   2.623   4.982   2.435  1.2064 -1.9353  0.1443
  226POPC  H13B13143   2.539   4.940   2.566  1.4157 -0.0883  0.8004
  226POPC  H13C13144   2.526   5.111   2.509 -3.0407 -2.1762 -1.8368
  226POPC   C1413145   2.772   5.169   2.559 -0.4829 -0.2344 -0.6162
  226POPC  H14A13146   2.860   5.194   2.616 -0.2442  0.3613 -1.2288
  226POPC  H14B13147   2.785   5.172   2.451  1.5698  2.0893 -0.3918
  226POPC  H14C13148   2.706   5.252   2.581  0.3641 -0.4042  3.2416
  226POPC   C1513149   2.800   4.938   2.610  0.1721 -0.1837  0.1046
  226POPC  H15A13150   2.836   4.913   2.511  0.0577 -0.2418  0.0772
  226POPC  H15B13151   2.748   4.846   2.629 -0.9411  0.2969 -0.4878
  226POPC  H15C13152   2.886   4.956   2.672  0.1445  1.2247 -0.2351
  226POPC   C1113153   2.780   5.094   2.868 -0.3000 -0.0677 -0.0059
  226POPC  H11A13154   2.855   5.014   2.851  0.2493  0.5585 -0.5883
  226POPC  H11B13155   2.734   5.090   2.969  0.2927  1.8904  0.3883
  226POPC     P13156   2.980   5.239   2.947 -0.4300 -0.3031 -0.1182
  226POPC   O1313157   2.917   5.278   3.080 -0.5731  0.0935  0.2314
  226POPC   O1413158   3.066   5.346   2.893 -0.8348 -0.2989  0.0474
  226POPC   O1213159   2.857   5.223   2.853 -0.0036  0.2866 -0.3333
  226POPC   O1113160   3.070   5.107   2.947 -0.0540 -0.5565  0.2609
  226POPC    C113161   3.179   5.101   3.043 -0.4393 -0.8296  1.0804
  226POPC    HA13162   3.165   5.164   3.133 -0.2283  0.3811  0.2877
  226POPC    HB13163   3.271   5.139   2.992 -1.5998 -0.1854 -0.6552
  226POPC    C213164   3.202   4.957   3.086 -0.4178  0.4500 -0.2433
  226POPC    HS13165   3.222   4.909   2.987  0.6522  2.3349 -0.9854
  226POPC   O2113166   3.082   4.916   3.163 -0.4546  0.1877  0.0075
  226POPC   C2113167   3.068   4.785   3.169 -0.6361  0.0259 -0.1738
  226POPC   O2213168   3.146   4.699   3.130 -0.2216 -0.1655 -0.4094
  226POPC   C2213169   2.928   4.748   3.234 -0.7043 -0.2473 -0.5958
  226POPC   H2R13170   2.904   4.644   3.202 -2.3303  0.1178 -0.6545
  226POPC   H2S13171   2.856   4.812   3.179 -1.8636 -1.1208 -0.1198
  226POPC    C313172   3.331   4.953   3.170  0.3115  0.6255  0.1231
  226POPC    HX13173   3.419   4.996   3.116  0.4816  1.3550  0.9595
  226POPC    HY13174   3.348   4.845   3.185  2.0603  1.1552  2.3906
  226POPC   O3113175   3.321   5.039   3.287 -0.2222 -0.1453  0.3264
  226POPC   C3113176   3.273   4.972   3.399  1.0893 -0.4937 -0.6859
  226POPC   O3213177   3.249   4.854   3.398 -0.3020  0.0022 -0.3918
  226POPC   C3213178   3.253   5.064   3.512  0.0236 -1.0537 -0.9379
  226POPC   H2X13179   3.146   5.082   3.538  0.7614 -0.0054  1.7548
  226POPC   H2Y13180   3.298   5.163   3.487  1.5903 -1.2991  0.6691
  226POPC   C2313181   2.931   4.745   3.384 -0.5304 -0.7366  0.1102
  226POPC   H3R13182   3.032   4.719   3.423 -0.1704  2.6615  1.8107
  226POPC   H3S13183   2.858   4.673   3.426 -0.4372  0.2369  2.0541
  226POPC   C2413184   2.892   4.879   3.443  0.4496 -0.2938 -0.2366
  226POPC   H4R13185   2.789   4.915   3.423  0.2987  0.4210  1.6296
  226POPC   H4S13186   2.961   4.958   3.408  1.1168 -0.1655  1.3099
  226POPC   C2513187   2.924   4.879   3.594  0.6030 -0.3409  0.4954
  226POPC   H5R13188   3.032   4.871   3.621  0.3786  1.2722  2.0744
  226POPC   H5S13189   2.878   4.787   3.636  0.8013  0.2354  2.0359
  226POPC   C2613190   2.870   5.000   3.667  0.0503 -0.0449 -0.4450
  226POPC   H6R13191   2.761   5.004   3.644 -0.4528  0.1070  1.7512
  226POPC   H6S13192   2.928   5.082   3.618  0.6024 -0.7463 -0.9823
  226POPC   C2713193   2.891   5.001   3.821  0.1510 -0.3365 -0.0789
  226POPC   H7R13194   2.849   4.911   3.872  0.7077 -1.0776 -0.8852
  226POPC   H7S13195   2.848   5.098   3.852 -1.7735 -0.0108 -3.2886
  226POPC   C2813196   3.037   4.999   3.856 -0.7330 -0.1187 -0.5321
  226POPC   H8R13197   3.092   5.086   3.814  2.1610 -0.3180  2.4380
  226POPC   H8S13198   3.083   4.906   3.818 -0.0095 -1.1220  2.4742
  226POPC   C2913199   3.058   5.005   4.011 -0.4138  0.8615  0.5659
  226POPC   H9113200   3.053   4.909   4.064 -0.8800 -0.0735 -1.0807
  226POPC  C21013201   3.090   5.113   4.080  0.3302  0.1782 -0.6285
  226POPC  H10113202   3.116   5.108   4.187 -0.4711 -1.3205 -0.4775
  226POPC  C21113203   3.095   5.246   4.025  0.1734 -1.2002  0.0785
  226POPC  H11R13204   3.066   5.316   4.106  1.5108 -1.0535  0.4491
  226POPC  H11S13205   3.015   5.266   3.950  0.6398  1.0991  0.1012
  226POPC  C21213206   3.235   5.285   3.979  0.6242 -0.3593  0.6100
  226POPC  H12R13207   3.271   5.207   3.908  2.5194 -0.1610  1.3012
  226POPC  H12S13208   3.315   5.277   4.055  0.0723 -1.6119  1.0765
  226POPC  C21313209   3.235   5.431   3.925 -0.2806 -0.4410 -0.3376
  226POPC  H13R13210   3.207   5.496   4.010 -0.8073 -1.2662  0.1380
  226POPC  H13S13211   3.159   5.449   3.847 -0.6475  0.5045  0.2242
  226POPC  C21413212   3.375   5.474   3.867  0.4786 -0.2988 -0.1001
  226POPC  H14R13213   3.426   5.512   3.959 -0.5474 -2.2883  1.3706
  226POPC  H14S13214   3.341   5.561   3.808 -2.0967  0.8456  2.8016
  226POPC  C21513215   3.462   5.370   3.793  0.5066 -0.1834 -0.1525
  226POPC  H15R13216   3.401   5.333   3.708  1.0648 -2.3723  0.3241
  226POPC  H15S13217   3.489   5.285   3.859 -1.7208 -1.6256 -0.9857
  226POPC  C21613218   3.583   5.437   3.732 -0.2859  0.8126 -0.4358
  226POPC  H16R13219   3.654   5.487   3.801 -0.1699 -0.1879  0.1905
  226POPC  H16S13220   3.548   5.525   3.674 -0.5499  1.6081  0.8866
  226POPC  C21713221   3.647   5.356   3.619 -0.7366 -0.3419  0.7897
  226POPC  H17R13222   3.681   5.429   3.543  0.4471  0.5124  2.1078
  226POPC  H17S13223   3.574   5.304   3.552 -0.2412  1.6150 -1.3855
  226POPC  C21813224   3.760   5.266   3.668  0.2792 -0.2770  0.3746
  226POPC  H18R13225   3.826   5.315   3.743  0.7233  0.7755 -0.6618
  226POPC  H18S13226   3.818   5.227   3.581 -1.6529 -1.9538 -0.2331
  226POPC  H18T13227   3.716   5.177   3.716  1.0571 -1.6521 -1.3396
  226POPC   C3313228   3.319   5.006   3.640  0.3087  1.1076 -0.0071
  226POPC   H3X13229   3.275   4.906   3.660 -0.5180  1.4901  0.1293
  226POPC   H3Y13230   3.289   5.064   3.730  0.5870  1.5554 -0.1964
  226POPC   C3413231   3.474   4.985   3.633  0.1941  0.0420  0.5718
  226POPC   H4X13232   3.518   5.086   3.647 -1.0657  0.6764  0.0863
  226POPC   H4Y13233   3.503   4.954   3.530 -1.2677  0.1327  0.1025
  226POPC   C3513234   3.542   4.885   3.738  0.2503  0.2005  0.7428
  226POPC   H5X13235   3.653   4.885   3.730  0.1348 -0.9904 -1.6658
  226POPC   H5Y13236   3.509   4.779   3.723  2.4062 -0.6955  1.8320
  226POPC   C3613237   3.507   4.913   3.882 -0.5543  0.5253 -0.2396
  226POPC   H6X13238   3.495   4.817   3.935 -2.1155  1.2993  0.9050
  226POPC   H6Y13239   3.414   4.975   3.887 -1.7083 -0.9513 -2.0616
  226POPC   C3713240   3.617   4.987   3.951  0.0734 -0.3188 -0.2386
  226POPC   H7X13241   3.631   5.086   3.902 -1.3472  0.3547  0.6759
  226POPC   H7Y13242   3.707   4.926   3.926 -1.0282 -1.6705 -1.0487
  226POPC   C3813243   3.608   5.005   4.107  0.5777 -0.1739  0.3826
  226POPC   H8X13244   3.603   4.905   4.155 -2.0544 -0.4273 -0.2727
  226POPC   H8Y13245   3.513   5.055   4.136  0.3323  0.7765 -1.8294
  226POPC   C3913246   3.727   5.082   4.163 -0.0659  0.6789 -0.1458
  226POPC   H9X13247   3.732   5.188   4.131 -0.9694  1.2844  1.6030
  226POPC   H9Y13248   3.815   5.035   4.114  0.7158  1.6789  0.2614
  226POPC  C31013249   3.731   5.073   4.312  0.0567 -0.1688  0.6273
  226POPC  H10X13250   3.752   4.969   4.344  2.0541 -1.0708 -3.0653
  226POPC  H10Y13251   3.636   5.116   4.350 -0.0551 -1.6408  2.1355
  226POPC  C31113252   3.849   5.168   4.363  0.1465  0.2688  0.0188
  226POPC  H11X13253   3.832   5.275   4.336  0.5965  0.7791  1.6480
  226POPC  H11Y13254   3.944   5.144   4.310  0.0512 -0.0359 -0.0141
  226POPC  C31213255   3.870   5.159   4.517 -0.2390 -0.0900  0.7971
  226POPC  H12X13256   3.904   5.055   4.537 -0.4807 -0.4491 -0.5326
  226POPC  H12Y13257   3.770   5.166   4.563 -1.9397 -2.4430 -2.1505
  226POPC  C31313258   3.980   5.249   4.577  0.0202 -0.0708  0.1433
  226POPC  H13X13259   4.081   5.216   4.544  0.6071  2.0150 -0.3391
  226POPC  H13Y13260   3.970   5.235   4.686  0.8734 -1.3748  0.0723
  226POPC  C31413261   3.967   5.398   4.534  0.0442 -0.3773  0.3397
  226POPC  H14X13262   3.864   5.417   4.570  0.0699 -2.3795  1.5781
  226POPC  H14Y13263   3.972   5.399   4.423 -0.3331  0.0932  0.3236
  226POPC  C31513264   4.061   5.494   4.606 -0.5204 -0.2841  0.2296
  226POPC  H15X13265   4.162   5.476   4.563 -1.3746 -0.4336 -1.8500
  226POPC  H15Y13266   4.064   5.471   4.714  0.1734  1.3822  0.5922
  226POPC  C31613267   4.021   5.643   4.590  0.0068 -0.9752 -0.3545
  226POPC  H16X13268   4.007   5.667   4.483  0.7233  0.6871 -0.0931
  226POPC  H16Y13269   4.107   5.700   4.630 -1.0592 -1.1546  2.4493
  226POPC  H16Z13270   3.936   5.664   4.659  1.8633 -0.0544  1.7488
  227POPC     N13271   1.905   2.433   2.437  0.2977  0.2591  0.6224
  227POPC   C1213272   1.842   2.561   2.488  0.5028 -0.2916 -0.6417
  227POPC  H12A13273   1.735   2.564   2.483  0.4400  2.2153  0.4225
  227POPC  H12B13274   1.873   2.648   2.431 -1.5253  0.8829 -0.0579
  227POPC   C1313275   2.047   2.445   2.437 -0.0929  0.3913 -0.1430
  227POPC  H13A13276   2.083   2.452   2.538 -1.2830  0.8178  0.2718
  227POPC  H13B13277   2.082   2.362   2.378 -0.1183  0.5583 -0.3946
  227POPC  H13C13278   2.084   2.529   2.381 -1.0855  1.8060  1.2387
  227POPC   C1413279   1.870   2.310   2.517  0.1783  0.4459  0.6570
  227POPC  H14A13280   1.907   2.227   2.458 -0.8149  0.4212  0.0378
  227POPC  H14B13281   1.909   2.310   2.618  0.2900  0.7473  0.6147
  227POPC  H14C13282   1.764   2.297   2.532  0.2026 -1.4818 -0.4903
  227POPC   C1513283   1.855   2.417   2.291  0.6236 -0.2831 -0.0246
  227POPC  H15A13284   1.888   2.498   2.228 -0.3211  0.2216  0.1110
  227POPC  H15B13285   1.747   2.412   2.286  0.5713  1.2611 -1.0326
  227POPC  H15C13286   1.896   2.321   2.263 -1.2662 -0.8172 -1.1176
  227POPC   C1113287   1.883   2.596   2.631  0.0584  1.6438 -0.1216
  227POPC  H11A13288   1.871   2.508   2.698 -0.1895  1.8929  0.1625
  227POPC  H11B13289   1.805   2.660   2.677  0.7518  1.3023  1.5894
  227POPC     P13290   2.038   2.806   2.603  0.3226  0.0300  0.3461
  227POPC   O1313291   1.912   2.873   2.572 -0.1546 -0.7217 -0.1572
  227POPC   O1413292   2.146   2.806   2.500  0.1513  0.1912 -0.0947
  227POPC   O1213293   2.016   2.654   2.636  0.0524 -0.1491  0.4443
  227POPC   O1113294   2.099   2.863   2.739  0.2283 -0.6523 -0.4022
  227POPC    C113295   2.118   2.789   2.854  0.7345  0.4589  0.2000
  227POPC    HA13296   2.198   2.829   2.919 -0.0028  1.0075  0.7958
  227POPC    HB13297   2.154   2.686   2.831  0.5608  0.6638 -1.0447
  227POPC    C213298   1.987   2.778   2.938 -0.3155 -0.6839 -0.1236
  227POPC    HS13299   1.911   2.751   2.862  0.1509 -0.5667 -0.6344
  227POPC   O2113300   1.969   2.902   3.003 -0.2325 -0.3035 -0.3730
  227POPC   C2113301   1.837   2.932   3.019  0.4634 -0.4558 -0.2758
  227POPC   O2213302   1.749   2.888   2.948 -0.2080  0.2009 -0.2976
  227POPC   C2213303   1.817   3.033   3.125  0.6790 -0.5948 -0.2131
  227POPC   H2R13304   1.834   3.134   3.084  1.4275  0.1161  1.7340
  227POPC   H2S13305   1.893   3.027   3.206  0.6061  0.9377 -0.0004
  227POPC    C313306   1.992   2.657   3.036 -0.4431 -0.2742 -0.4006
  227POPC    HX13307   2.075   2.672   3.108  0.0153  1.8980 -1.3191
  227POPC    HY13308   2.024   2.569   2.976 -2.0246 -1.8805  1.0025
  227POPC   O3113309   1.875   2.627   3.104 -0.4903  0.6410 -0.0186
  227POPC   C3113310   1.806   2.519   3.068  0.1849 -0.1566  0.1885
  227POPC   O3213311   1.834   2.444   2.985  0.5088  0.2430  0.1676
  227POPC   C3213312   1.691   2.515   3.158  0.1663  1.0756 -0.0137
  227POPC   H2X13313   1.604   2.504   3.090  2.3103  0.4368 -2.8576
  227POPC   H2Y13314   1.679   2.604   3.224 -0.8102 -0.0946  1.4741
  227POPC   C2313315   1.676   3.007   3.185  0.6597  0.9513  0.8646
  227POPC   H3R13316   1.654   2.904   3.220 -1.5438  1.0039 -0.1785
  227POPC   H3S13317   1.589   3.003   3.117  0.6905 -0.0817  0.8664
  227POPC   C2413318   1.644   3.106   3.296 -0.2966  0.2769  0.1873
  227POPC   H4R13319   1.620   3.204   3.249 -0.1883  0.6795  0.9599
  227POPC   H4S13320   1.727   3.124   3.368 -0.4889  4.0131 -0.3027
  227POPC   C2513321   1.507   3.063   3.370  0.1143 -0.9642  0.4287
  227POPC   H5R13322   1.431   3.097   3.297  1.5792  1.4862 -0.0706
  227POPC   H5S13323   1.484   3.130   3.455 -1.1289 -0.8726  0.0408
  227POPC   C2613324   1.495   2.922   3.429 -0.1961  0.4825  0.2177
  227POPC   H6R13325   1.597   2.901   3.469 -0.5066 -0.9720  0.2991
  227POPC   H6S13326   1.477   2.848   3.348  1.5087  0.5285 -0.2461
  227POPC   C2713327   1.391   2.916   3.544 -0.1667 -0.3150 -0.4124
  227POPC   H7R13328   1.402   3.000   3.615 -1.1374 -0.2808 -0.2972
  227POPC   H7S13329   1.407   2.821   3.599 -0.9536 -0.1067  0.1810
  227POPC   C2813330   1.243   2.918   3.491 -0.6381 -0.8035  0.0336
  227POPC   H8R13331   1.238   2.859   3.397 -0.4766 -0.9161  0.0957
  227POPC   H8S13332   1.235   3.023   3.456  3.1087  0.1255  1.4617
  227POPC   C2913333   1.140   2.875   3.589 -0.8567 -0.2928  0.3192
  227POPC   H9113334   1.133   2.766   3.576  0.4337 -0.5699  1.6455
  227POPC  C21013335   1.060   2.935   3.678  1.0836 -0.7600 -0.3316
  227POPC  H10113336   1.016   2.881   3.763  2.9112 -0.2567  1.0033
  227POPC  C21113337   1.062   3.082   3.698  0.0085 -0.4227  0.1905
  227POPC  H11R13338   1.031   3.127   3.601  0.8297  1.8366  0.9122
  227POPC  H11S13339   1.165   3.116   3.722  0.3537 -0.8549 -0.6487
  227POPC  C21213340   0.971   3.138   3.807  0.2749 -0.6503 -0.6462
  227POPC  H12R13341   0.980   3.249   3.810 -1.4854 -0.4703 -0.7779
  227POPC  H12S13342   0.997   3.097   3.907 -0.5540 -0.3626 -0.2983
  227POPC  C21313343   0.817   3.111   3.787 -0.5197 -0.5090  0.6066
  227POPC  H13R13344   0.804   3.100   3.678  0.7799 -0.0328  0.3872
  227POPC  H13S13345   0.760   3.205   3.805  0.5835  0.7763 -2.0821
  227POPC  C21413346   0.759   2.995   3.862  0.3945 -0.2991 -0.3453
  227POPC  H14R13347   0.821   2.903   3.871  1.1668  0.3245  0.9941
  227POPC  H14S13348   0.659   2.982   3.816  0.9172 -0.1565 -1.5544
  227POPC  C21513349   0.709   3.041   4.008 -0.3779  0.2816  0.1449
  227POPC  H15R13350   0.622   3.109   4.005 -1.2349 -0.6490  2.3590
  227POPC  H15S13351   0.793   3.090   4.062 -1.2522  0.8666  1.0014
  227POPC  C21613352   0.656   2.929   4.099 -0.2367  0.1067 -0.1141
  227POPC  H16R13353   0.746   2.864   4.103 -0.9181 -0.9222 -0.8373
  227POPC  H16S13354   0.568   2.877   4.056 -0.7269 -1.9357  3.0290
  227POPC  C21713355   0.615   2.981   4.240  0.5832  0.5324  0.3760
  227POPC  H17R13356   0.587   2.896   4.305  1.1553 -0.4032 -0.5729
  227POPC  H17S13357   0.521   3.040   4.230  0.4730  0.1289 -1.1331
  227POPC  C21813358   0.728   3.053   4.313  0.2615 -0.3005 -0.2105
  227POPC  H18R13359   0.687   3.095   4.407  2.3309  0.3269  0.4638
  227POPC  H18S13360   0.748   3.140   4.246 -2.9285 -0.7233 -1.9382
  227POPC  H18T13361   0.822   2.995   4.318  0.6645  0.3612  0.0596
  227POPC   C3313362   1.702   2.396   3.255  0.2447 -0.3037  0.6236
  227POPC   H3X13363   1.733   2.308   3.196 -2.4375 -0.2726 -1.0100
  227POPC   H3Y13364   1.602   2.372   3.297 -0.9227  2.0334 -0.6015
  227POPC   C3413365   1.792   2.419   3.369 -0.7076  0.4905  0.1621
  227POPC   H4X13366   1.902   2.425   3.355 -0.5099  3.8994  2.0323
  227POPC   H4Y13367   1.780   2.320   3.417 -1.2111  0.1119 -0.7389
  227POPC   C3513368   1.744   2.501   3.486 -0.0192 -0.3436  0.5297
  227POPC   H5X13369   1.636   2.479   3.497 -0.3098  0.4006 -0.6532
  227POPC   H5Y13370   1.737   2.605   3.447  0.4114 -0.1749  0.8949
  227POPC   C3613371   1.828   2.509   3.609  0.5544 -0.6671  0.4388
  227POPC   H6X13372   1.927   2.557   3.591  0.3133 -0.5048 -0.5094
  227POPC   H6Y13373   1.841   2.400   3.626 -0.0312 -0.8295 -0.1150
  227POPC   C3713374   1.766   2.568   3.736 -0.1528 -1.1311 -0.5583
  227POPC   H7X13375   1.746   2.676   3.717  0.1745 -0.8903  0.3855
  227POPC   H7Y13376   1.839   2.572   3.820 -0.8109 -2.1120  0.0785
  227POPC   C3813377   1.642   2.489   3.795  0.1578 -0.4693  0.1274
  227POPC   H8X13378   1.674   2.384   3.807  0.3879 -0.2139  2.0715
  227POPC   H8Y13379   1.558   2.484   3.723 -0.4305 -0.1595  0.7791
  227POPC   C3913380   1.592   2.541   3.934 -0.8033  0.5065 -0.1465
  227POPC   H9X13381   1.566   2.647   3.918 -0.5083  0.5323 -0.4601
  227POPC   H9Y13382   1.685   2.542   3.996 -0.4771  0.4043 -0.6249
  227POPC  C31013383   1.501   2.445   4.016  0.2043 -0.2208 -0.4780
  227POPC  H10X13384   1.566   2.357   4.037  1.0940 -0.4025 -3.4686
  227POPC  H10Y13385   1.429   2.407   3.941  0.5851 -1.1120 -0.4084
  227POPC  C31113386   1.453   2.501   4.150 -0.0605 -0.0592  0.4465
  227POPC  H11X13387   1.400   2.598   4.135  1.2565  0.9496  1.9433
  227POPC  H11Y13388   1.535   2.522   4.222  0.4041  2.2000 -0.6278
  227POPC  C31213389   1.347   2.417   4.227  0.3470  0.1983  0.1614
  227POPC  H12X13390   1.398   2.324   4.261  2.2313  1.5448  1.2366
  227POPC  H12Y13391   1.266   2.392   4.156  1.2072 -2.0094 -0.1124
  227POPC  C31313392   1.289   2.496   4.346  0.7131  0.1609  0.3552
  227POPC  H13X13393   1.260   2.595   4.302  3.0561  0.7101 -0.0876
  227POPC  H13Y13394   1.367   2.518   4.422 -1.2212  1.8359  2.0077
  227POPC  C31413395   1.170   2.437   4.420  0.1220 -0.7605 -0.2498
  227POPC  H14X13396   1.081   2.434   4.354 -0.0550  0.1205 -0.0624
  227POPC  H14Y13397   1.146   2.503   4.506  0.3163 -0.2664 -0.5685
  227POPC  C31513398   1.196   2.293   4.465  0.0150  0.5481 -0.0443
  227POPC  H15X13399   1.292   2.275   4.517 -0.3993 -0.5789  0.3396
  227POPC  H15Y13400   1.210   2.232   4.373  0.8982 -0.5353  0.7919
  227POPC  C31613401   1.088   2.244   4.563  0.0925 -0.8788  0.3224
  227POPC  H16X13402   1.113   2.142   4.600  3.5896 -0.0406  0.5623
  227POPC  H16Y13403   0.989   2.244   4.513  0.2548 -2.6690 -0.0862
  227POPC  H16Z13404   1.080   2.309   4.653  0.2617 -0.1046 -0.2184
  228POPC     N13405   6.284   5.260   2.668  0.2700 -0.6046  0.7575
  228POPC   C1213406   6.382   5.185   2.757 -0.9346  0.0710 -0.3567
  228POPC  H12A13407   6.472   5.244   2.764 -2.4563  2.3557  1.7098
  228POPC  H12B13408   6.398   5.092   2.705  3.3297  0.8827 -0.8711
  228POPC   C1313409   6.208   5.370   2.733  0.3491 -0.7029  0.1530
  228POPC  H13A13410   6.146   5.419   2.660  1.5222 -0.1255 -0.4827
  228POPC  H13B13411   6.153   5.331   2.818  1.5721 -2.9969  0.0055
  228POPC  H13C13412   6.279   5.436   2.781  1.0540 -1.9363  0.8891
  228POPC   C1413413   6.351   5.306   2.546 -0.3322 -0.4313 -0.7455
  228POPC  H14A13414   6.284   5.381   2.506 -2.2472 -1.6748 -0.0284
  228POPC  H14B13415   6.447   5.353   2.562 -0.9853  0.3821  1.0197
  228POPC  H14C13416   6.363   5.222   2.480  2.2295 -0.4837 -0.2876
  228POPC   C1513417   6.184   5.163   2.621  0.1279  0.5342  0.2184
  228POPC  H15A13418   6.231   5.081   2.569 -0.4930 -0.8718  1.7929
  228POPC  H15B13419   6.116   5.214   2.555  1.0607  1.6761  0.1011
  228POPC  H15C13420   6.134   5.128   2.710  0.6909  0.0982  0.3675
  228POPC   C1113421   6.343   5.157   2.901 -0.3231 -0.0439 -0.5416
  228POPC  H11A13422   6.324   5.254   2.953  0.2473 -0.4078  0.3785
  228POPC  H11B13423   6.439   5.129   2.950 -1.2775  1.2645  2.3056
  228POPC     P13424   6.265   4.905   2.888 -0.3079 -0.3270  0.2052
  228POPC   O1313425   6.294   4.886   2.748 -0.4728 -0.3332  0.0049
  228POPC   O1413426   6.147   4.833   2.948 -0.1883 -0.7673 -0.5245
  228POPC   O1213427   6.241   5.057   2.911  0.7743 -0.5653  0.4219
  228POPC   O1113428   6.401   4.876   2.968  1.1766  0.0864 -0.0743
  228POPC    C113429   6.414   4.747   3.033  0.1277  0.0680 -0.5746
  228POPC    HA13430   6.522   4.720   3.040  0.3707 -0.0188 -3.4689
  228POPC    HB13431   6.368   4.666   2.972  4.6123 -0.8256 -3.2287
  228POPC    C213432   6.355   4.754   3.181  1.1578  0.7299  0.8914
  228POPC    HS13433   6.249   4.787   3.171  1.6608  1.8274 -1.2822
  228POPC   O2113434   6.434   4.846   3.254 -0.0110 -0.1496  0.3403
  228POPC   C2113435   6.368   4.934   3.324  0.8802 -0.9142  0.0056
  228POPC   O2213436   6.245   4.948   3.333 -0.1598  0.3935  0.1452
  228POPC   C2213437   0.023   5.019   3.393 -0.6025  0.2355 -0.2791
  228POPC   H2R13438  -0.030   5.116   3.405 -0.2954  0.6709 -2.1301
  228POPC   H2S13439   0.110   5.033   3.326  0.5563 -0.2113  1.0882
  228POPC    C313440   6.347   4.619   3.256  0.2307 -0.8266 -0.1977
  228POPC    HX13441   6.444   4.567   3.268 -0.6595 -2.1986  1.5703
  228POPC    HY13442   6.279   4.546   3.208  2.2687 -1.0431 -3.0081
  228POPC   O3113443   6.288   4.644   3.388 -0.2280  0.1393 -0.5376
  228POPC   C3113444   6.160   4.624   3.404  0.0757  0.1687 -0.8002
  228POPC   O3213445   6.079   4.605   3.320 -0.4303  0.5687 -0.7647
  228POPC   C3213446   6.132   4.639   3.553 -0.8989  0.4212  0.1803
  228POPC   H2X13447   6.212   4.707   3.591 -1.1834  0.1720  1.2496
  228POPC   H2Y13448   6.163   4.540   3.592  0.1573  0.1176 -1.3349
  228POPC   C2313449   0.071   4.957   3.525  0.4019 -0.0531  0.1023
  228POPC   H3R13450   0.126   5.031   3.588  1.5269 -2.3233  1.9629
  228POPC   H3S13451   0.133   4.867   3.507  2.4463  0.5907  3.0394
  228POPC   C2413452   6.402   4.917   3.620 -0.2432 -0.0609  0.3269
  228POPC   H4R13453   6.364   4.830   3.563 -0.3441  0.9058 -1.1420
  228POPC   H4S13454   6.333   5.004   3.618  0.7079  0.7243  0.7538
  228POPC   C2513455   0.008   4.887   3.756 -0.2046  0.2077  0.5128
  228POPC   H5R13456   0.037   4.984   3.803  1.3544  0.5054 -0.9775
  228POPC   H5S13457   0.099   4.824   3.751 -0.5290 -0.2161 -0.1088
  228POPC   C2613458   6.354   4.819   3.848  1.0919  0.1523  0.0198
  228POPC   H6R13459   6.334   4.715   3.814 -0.0251  0.3617 -0.0046
  228POPC   H6S13460   6.254   4.867   3.855  1.9005  1.9685 -0.5427
  228POPC   C2713461  -0.035   4.810   3.991  0.0283 -0.3478 -0.1483
  228POPC   H7R13462  -0.001   4.913   4.012 -1.0766  0.0696 -0.3244
  228POPC   H7S13463   0.059   4.754   4.007 -0.2317 -0.2909  1.8426
  228POPC   C2813464   6.297   4.758   4.087  0.9018 -0.5482  0.3847
  228POPC   H8R13465   6.271   4.652   4.069  0.9601 -0.3901 -0.7281
  228POPC   H8S13466   6.206   4.821   4.086  0.4019 -1.2257 -1.5664
  228POPC   C2913467   6.365   4.772   4.223  1.2345 -0.0671  0.3782
  228POPC   H9113468   6.449   4.841   4.234  1.7238 -0.5594 -0.2131
  228POPC  C21013469   6.328   4.698   4.326  0.3557  0.2924  0.4155
  228POPC  H10113470   6.373   4.721   4.423  1.1323 -4.8526  1.5605
  228POPC  C21113471   6.233   4.581   4.340  0.4933 -0.4378  0.2872
  228POPC  H11R13472   6.250   4.516   4.428 -0.6747 -1.3622 -0.1415
  228POPC  H11S13473   6.242   4.513   4.253 -2.2375 -2.3122  1.3237
  228POPC  C21213474   6.080   4.611   4.327  0.7312 -0.0680 -0.0023
  228POPC  H12R13475   6.025   4.515   4.314 -1.9346  1.3082  0.3213
  228POPC  H12S13476   6.055   4.657   4.229 -2.3105 -0.7398  0.3503
  228POPC  C21313477   6.039   4.706   4.432 -0.4929 -0.3536 -0.5363
  228POPC  H13R13478   6.102   4.798   4.422  2.1815 -2.1744 -1.8197
  228POPC  H13S13479   6.058   4.643   4.521  4.8827  1.6853  0.1620
  228POPC  C21413480   5.892   4.743   4.428  0.9284 -0.9467  0.9501
  228POPC  H14R13481   5.826   4.654   4.420 -1.5715  0.9589 -1.3145
  228POPC  H14S13482   5.872   4.802   4.336 -2.9238 -1.4758  1.2801
  228POPC  C21513483   5.840   4.815   4.547  0.8030 -0.0645  0.1266
  228POPC  H15R13484   5.911   4.894   4.580 -0.3847  2.2051 -2.3399
  228POPC  H15S13485   5.815   4.754   4.636  0.4477  0.6113  0.4977
  228POPC  C21613486   5.708   4.893   4.501  0.1786  0.9434  0.0089
  228POPC  H16R13487   5.638   4.815   4.463  0.4042  1.5865 -1.8375
  228POPC  H16S13488   5.733   4.954   4.412  0.6962 -0.8442 -1.1461
  228POPC  C21713489   5.655   4.979   4.611 -0.0855  0.6326  0.2792
  228POPC  H17R13490   5.651   4.923   4.707  0.9411 -0.3812 -0.2466
  228POPC  H17S13491   5.554   5.009   4.576  0.1586  1.5181  0.3087
  228POPC  C21813492   5.740   5.102   4.644 -0.0496 -0.2296 -0.3928
  228POPC  H18R13493   5.695   5.175   4.714  1.5587  0.9580 -0.5462
  228POPC  H18S13494   5.771   5.160   4.555 -1.4334  0.6183 -0.3566
  228POPC  H18T13495   5.836   5.077   4.694 -0.2745  1.8942  1.2442
  228POPC   C3313496   5.994   4.685   3.584 -0.2094 -0.4283  0.0422
  228POPC   H3X13497   5.925   4.603   3.555  0.8083 -1.1968 -0.2594
  228POPC   H3Y13498   5.968   4.781   3.533  1.1215 -1.0527 -1.9400
  228POPC   C3413499   5.984   4.705   3.733  0.3339  0.2579  0.3379
  228POPC   H4X13500   6.057   4.783   3.761 -0.4967  1.3480 -0.4664
  228POPC   H4Y13501   6.008   4.611   3.788 -0.5253  0.9631  2.0201
  228POPC   C3513502   5.854   4.769   3.766 -0.2741  0.0555 -0.0538
  228POPC   H5X13503   5.759   4.721   3.733 -0.0210 -0.2195 -0.3968
  228POPC   H5Y13504   5.851   4.870   3.721  1.6512 -0.6037 -1.8255
  228POPC   C3613505   5.841   4.801   3.916 -0.2482 -0.3830  0.1172
  228POPC   H6X13506   5.935   4.850   3.951  0.1855 -0.2725 -1.1381
  228POPC   H6Y13507   5.825   4.707   3.972 -0.5564 -0.5213 -0.2032
  228POPC   C3713508   5.712   4.893   3.933  0.1533  0.6449 -0.0634
  228POPC   H7X13509   5.625   4.826   3.916  2.3087 -2.1905 -0.6128
  228POPC   H7Y13510   5.718   4.969   3.852  0.1797  0.4947 -0.2032
  228POPC   C3813511   5.700   4.957   4.073  0.2253 -0.5776  0.2567
  228POPC   H8X13512   5.792   5.012   4.103 -0.8388  2.2917 -1.3387
  228POPC   H8Y13513   5.691   4.870   4.142  0.4836  0.7767  2.0874
  228POPC   C3913514   5.597   5.074   4.094 -0.1028  0.4208  0.0150
  228POPC   H9X13515   5.504   5.019   4.067 -1.3300  2.2700  0.3029
  228POPC   H9Y13516   5.613   5.152   4.017  0.2126  0.3008 -0.0425
  228POPC  C31013517   5.590   5.120   4.237  0.3199  0.1133 -0.0952
  228POPC  H10X13518   5.685   5.160   4.279 -0.7022  0.6246  1.9115
  228POPC  H10Y13519   5.564   5.033   4.301 -0.6100 -1.3272 -2.3275
  228POPC  C31113520   5.487   5.232   4.273  0.0378  0.5554 -0.1793
  228POPC  H11X13521   5.389   5.186   4.245  0.3721  0.9244 -2.0888
  228POPC  H11Y13522   5.506   5.317   4.205 -3.1802  1.5405  0.0019
  228POPC  C31213523   5.496   5.286   4.413  0.7299  0.0508 -0.0782
  228POPC  H12X13524   5.590   5.346   4.410  1.9021 -1.7136 -0.3659
  228POPC  H12Y13525   5.506   5.212   4.495 -1.1369 -0.7156 -0.4851
  228POPC  C31313526   5.376   5.371   4.453 -0.4669 -0.0439 -1.0188
  228POPC  H13X13527   5.284   5.309   4.463 -0.8989  0.6352 -0.6979
  228POPC  H13Y13528   5.353   5.449   4.378 -0.4203 -0.8113 -1.8425
  228POPC  C31413529   5.410   5.440   4.589 -0.5108  0.3735 -0.3808
  228POPC  H14X13530   5.473   5.529   4.567  3.0682 -1.6754  0.8015
  228POPC  H14Y13531   5.469   5.376   4.657 -1.6093  0.8628  1.0940
  228POPC  C31513532   5.286   5.480   4.666 -0.3694  0.0484 -0.4140
  228POPC  H15X13533   5.239   5.394   4.717  0.0973  0.4656  0.7450
  228POPC  H15Y13534   5.205   5.527   4.606  0.8250 -0.0801 -2.2308
  228POPC  C31613535   5.320   5.584   4.779  0.3005  0.7085 -0.0513
  228POPC  H16X13536   5.241   5.576   4.856  0.4441 -2.2598 -0.0939
  228POPC  H16Y13537   5.326   5.682   4.727  1.2038  0.1483 -1.0487
  228POPC  H16Z13538   5.414   5.550   4.826  1.6939  2.5455 -1.3291
  229POPC     N13539   3.867   0.832   2.464 -0.3043  0.6070 -0.7509
  229POPC   C1213540   3.810   0.764   2.586 -0.3066  0.4315 -0.5864
  229POPC  H12A13541   3.827   0.657   2.585 -2.9037 -0.0582 -0.4899
  229POPC  H12B13542   3.703   0.780   2.583 -0.6433 -1.4400 -0.0547
  229POPC   C1313543   3.834   0.970   2.463  0.4901  0.2983  0.5718
  229POPC  H13A13544   3.874   1.024   2.379  1.4016  1.5998  1.7940
  229POPC  H13B13545   3.728   0.987   2.471 -0.1328 -1.0176 -3.0466
  229POPC  H13C13546   3.870   1.014   2.555 -1.8817  1.5417  0.9836
  229POPC   C1413547   4.019   0.798   2.461 -0.0599 -0.1896  0.0915
  229POPC  H14A13548   4.027   0.691   2.454 -1.7148 -0.3334 -0.0397
  229POPC  H14B13549   4.074   0.840   2.378  1.0301 -0.5277  0.6219
  229POPC  H14C13550   4.065   0.830   2.553  0.5198 -1.2643  0.1893
  229POPC   C1513551   3.811   0.762   2.343  0.7487  0.5618  0.3605
  229POPC  H15A13552   3.845   0.660   2.332 -0.0095  0.0974  1.9734
  229POPC  H15B13553   3.855   0.813   2.259  3.5453 -2.0603  0.0601
  229POPC  H15C13554   3.703   0.770   2.341  0.6707  0.1399  1.6497
  229POPC   C1113555   3.864   0.822   2.731 -0.2452  0.0127  0.0071
  229POPC  H11A13556   3.792   0.776   2.803 -0.0935 -2.0108 -1.0550
  229POPC  H11B13557   3.837   0.929   2.720 -2.8991 -0.7733 -2.6109
  229POPC     P13558   4.022   0.647   2.833 -0.2836 -0.1665  0.2419
  229POPC   O1313559   4.173   0.629   2.852 -0.7161 -0.1561 -0.2537
  229POPC   O1413560   3.958   0.547   2.742 -0.2092 -0.2296  0.0028
  229POPC   O1213561   4.001   0.794   2.768 -0.1037 -0.3448  0.1148
  229POPC   O1113562   3.946   0.647   2.968 -0.6075 -0.1760 -0.0653
  229POPC    C113563   3.932   0.758   3.059 -0.0692  0.3016 -0.0016
  229POPC    HA13564   3.834   0.743   3.109 -0.1673 -3.7317 -1.0407
  229POPC    HB13565   3.937   0.851   2.999 -0.6642 -0.5426 -1.4123
  229POPC    C213566   4.047   0.755   3.157  0.1062 -0.0748  0.4283
  229POPC    HS13567   4.141   0.729   3.104  0.7834  0.5389  1.2972
  229POPC   O2113568   4.024   0.657   3.261  0.4790  0.2204 -0.2165
  229POPC   C2113569   4.135   0.580   3.298  0.3127  0.7705  0.5551
  229POPC   O2213570   4.244   0.598   3.249  0.1331 -0.2238  0.0871
  229POPC   C2213571   4.088   0.458   3.375  0.1909  0.0476  0.4832
  229POPC   H2R13572   3.999   0.405   3.334  2.0546 -1.8093 -1.4497
  229POPC   H2S13573   4.074   0.495   3.479 -0.8296  1.0329  0.0087
  229POPC    C313574   4.078   0.892   3.221 -0.2253 -1.1851 -0.3694
  229POPC    HX13575   3.993   0.937   3.277  0.3381  0.3914 -0.7033
  229POPC    HY13576   4.088   0.964   3.137 -0.7890 -0.5882  0.0573
  229POPC   O3113577   4.188   0.902   3.314 -0.4990 -0.4083 -0.2282
  229POPC   C3113578   4.303   0.943   3.266  0.4993 -1.3013  0.3890
  229POPC   O3213579   4.327   0.972   3.148 -0.5114  0.4864  0.2744
  229POPC   C3213580   4.415   0.920   3.376  1.1597  0.0942  0.6845
  229POPC   H2X13581   4.436   0.811   3.371 -0.0267 -0.0986 -1.6320
  229POPC   H2Y13582   4.371   0.951   3.473 -0.3126  2.6985 -0.6828
  229POPC   C2313583   4.198   0.338   3.409  0.0251 -0.3410 -0.6302
  229POPC   H3R13584   4.219   0.295   3.309 -1.1960  0.2220 -1.1430
  229POPC   H3S13585   4.152   0.261   3.476 -0.6348  0.2973 -0.3301
  229POPC   C2413586   4.327   0.372   3.483 -0.1395  0.4221  0.4775
  229POPC   H4R13587   4.373   0.450   3.418  0.2296 -1.9277 -2.3255
  229POPC   H4S13588   4.391   0.281   3.478 -0.6481  0.0502  0.6504
  229POPC   C2513589   4.316   0.421   3.625  0.9073 -0.3939 -0.5310
  229POPC   H5R13590   4.410   0.396   3.678 -0.2617  1.2708  2.6092
  229POPC   H5S13591   4.240   0.370   3.687  1.2919 -1.1153 -0.6495
  229POPC   C2613592   4.321   0.579   3.637 -0.1764 -0.0062  0.0434
  229POPC   H6R13593   4.237   0.618   3.577  0.2462  0.4794 -0.2371
  229POPC   H6S13594   4.410   0.619   3.584 -0.1729  1.6042  1.1781
  229POPC   C2713595   4.311   0.632   3.783 -0.6931  0.1289 -0.4069
  229POPC   H7R13596   4.224   0.585   3.834  0.1173 -0.9348  0.0363
  229POPC   H7S13597   4.291   0.739   3.762  2.3976  1.9164  4.1416
  229POPC   C2813598   4.436   0.613   3.865  0.8500  0.2936 -0.3371
  229POPC   H8R13599   4.526   0.622   3.802  0.4168  1.0616 -0.8518
  229POPC   H8S13600   4.418   0.514   3.914 -1.6995  0.3684 -0.9809
  229POPC   C2913601   4.451   0.718   3.977  0.6979  0.3064 -0.2420
  229POPC   H9113602   4.489   0.814   3.940 -2.1023  1.9808  0.8494
  229POPC  C21013603   4.443   0.701   4.116  0.1520  0.0780  0.1758
  229POPC  H10113604   4.459   0.789   4.180  0.5761 -1.2269  1.9467
  229POPC  C21113605   4.408   0.576   4.193 -0.3126 -0.4842  0.4034
  229POPC  H11R13606   4.490   0.500   4.189  1.0069  0.9267 -2.2354
  229POPC  H11S13607   4.316   0.526   4.157  0.4196 -1.0939 -0.7192
  229POPC  C21213608   4.392   0.608   4.344  0.4514 -0.5692 -0.4854
  229POPC  H12R13609   4.339   0.520   4.387 -1.0425  1.1317  1.3557
  229POPC  H12S13610   4.310   0.683   4.345 -0.6537 -1.6753 -2.3669
  229POPC  C21313611   4.517   0.641   4.429  0.2338 -0.2457  0.3434
  229POPC  H13R13612   4.570   0.721   4.374 -1.9988  0.9994 -0.1049
  229POPC  H13S13613   4.591   0.558   4.433 -0.3497 -0.7286  3.1021
  229POPC  C21413614   4.476   0.684   4.576 -0.6772 -0.2112  0.0075
  229POPC  H14R13615   4.410   0.614   4.631 -1.4890  0.6178  0.0914
  229POPC  H14S13616   4.424   0.782   4.578 -2.5628 -1.1616  2.3799
  229POPC  C21513617   4.596   0.710   4.666 -0.1350  0.3068 -0.6006
  229POPC  H15R13618   4.663   0.787   4.623  0.5599  0.2140  0.3070
  229POPC  H15S13619   4.649   0.613   4.654 -1.2386 -0.6308  1.5500
  229POPC  C21613620   4.573   0.712   4.820  0.6158 -0.4840  0.2838
  229POPC  H16R13621   4.666   0.694   4.879 -1.7790 -2.4651  3.8302
  229POPC  H16S13622   4.506   0.629   4.851 -0.9757  0.3244 -0.8445
  229POPC  C21713623   4.487   0.837   4.864 -0.6212 -0.1573  0.2614
  229POPC  H17R13624   4.467   0.823   4.972  0.6872  0.0379  0.5560
  229POPC  H17S13625   4.392   0.823   4.809 -1.0539  0.2722  0.8834
  229POPC  C21813626   4.561   0.973   4.840  0.8775 -0.7324 -1.0776
  229POPC  H18R13627   4.590   0.994   4.734  2.5807  0.7815 -0.3655
  229POPC  H18S13628   4.649   0.970   4.908 -0.3534 -0.1423  0.6071
  229POPC  H18T13629   4.491   1.053   4.869  0.7417 -0.0950 -3.0008
  229POPC   C3313630   4.538   0.993   3.347 -0.2846  0.4150  0.4641
  229POPC   H3X13631   4.507   1.099   3.337 -1.6107  0.1410  1.2519
  229POPC   H3Y13632   4.599   0.966   3.259  4.3151  0.5037  3.2866
  229POPC   C3413633   4.642   0.990   3.463  0.5624 -0.0042  0.1784
  229POPC   H4X13634   4.587   1.012   3.557 -1.3368 -1.0703 -0.6428
  229POPC   H4Y13635   4.724   1.063   3.444 -0.8214  2.0188  1.5785
  229POPC   C3513636   4.722   0.858   3.470  0.2656  0.4367 -0.0583
  229POPC   H5X13637   4.792   0.868   3.384 -0.4101  2.3008 -0.4454
  229POPC   H5Y13638   4.665   0.764   3.460  2.0745 -0.6690 -0.4400
  229POPC   C3613639   4.816   0.858   3.592 -0.1162  0.2192 -0.3097
  229POPC   H6X13640   4.870   0.955   3.592 -0.9451  0.7527  2.3750
  229POPC   H6Y13641   4.886   0.772   3.585 -0.7018 -0.2348 -0.7059
  229POPC   C3713642   4.738   0.859   3.726  0.3552  0.2129  0.1966
  229POPC   H7X13643   4.690   0.761   3.745 -0.4271  0.7564  1.1274
  229POPC   H7Y13644   4.669   0.945   3.740 -1.1332 -1.0405  0.9001
  229POPC   C3813645   4.825   0.879   3.849 -0.0720  0.3108 -0.4469
  229POPC   H8X13646   4.870   0.980   3.842  2.2901 -0.6299  0.3335
  229POPC   H8Y13647   4.910   0.808   3.857 -1.3281 -1.1683  0.5172
  229POPC   C3913648   4.754   0.870   3.985  0.3049 -0.3718  0.1576
  229POPC   H9X13649   4.707   0.770   3.998 -2.6449  0.5347 -2.1995
  229POPC   H9Y13650   4.670   0.943   3.982 -0.0442 -0.7817 -1.5033
  229POPC  C31013651   4.847   0.890   4.102  0.0275 -0.3766  0.3211
  229POPC  H10X13652   4.879   0.996   4.100 -1.0603  0.0680 -3.6386
  229POPC  H10Y13653   4.941   0.835   4.082  1.3582  2.1224 -0.7605
  229POPC  C31113654   4.784   0.861   4.236 -0.2108  0.3685  0.1427
  229POPC  H11X13655   4.747   0.758   4.256 -0.7956  0.5605  0.0715
  229POPC  H11Y13656   4.706   0.938   4.252 -0.4805  0.0196  0.5386
  229POPC  C31213657   4.891   0.888   4.343 -0.6224  0.2834 -0.4502
  229POPC  H12X13658   4.850   0.948   4.427 -1.1044 -1.3330  0.5297
  229POPC  H12Y13659   4.976   0.944   4.298 -0.2482  0.7918  0.8312
  229POPC  C31313660   4.944   0.759   4.416 -0.0305  0.0467 -0.0611
  229POPC  H13X13661   4.998   0.698   4.341  0.0764  2.3285 -1.9602
  229POPC  H13Y13662   4.853   0.706   4.453 -1.4291  1.9127 -0.6458
  229POPC  C31413663   5.049   0.783   4.529  0.1335 -0.1472  0.1484
  229POPC  H14X13664   5.142   0.839   4.507  0.1756  0.2330  1.2563
  229POPC  H14Y13665   4.998   0.846   4.605  0.5587  1.0703 -0.5404
  229POPC  C31513666   5.100   0.653   4.589 -0.1746  0.1414 -0.2578
  229POPC  H15X13667   5.192   0.681   4.645 -0.5843 -0.3318  0.6727
  229POPC  H15Y13668   5.133   0.577   4.515  2.0729  1.4579 -0.7078
  229POPC  C31613669   4.997   0.597   4.684 -0.8839  0.5477 -0.5692
  229POPC  H16X13670   4.957   0.674   4.753  0.1469  0.3473  0.2700
  229POPC  H16Y13671   5.047   0.520   4.747 -0.9166  1.2028  0.2718
  229POPC  H16Z13672   4.921   0.553   4.615  0.1504  0.8671 -1.9664
  230POPC     N13673   4.659   3.669   2.653  0.2712  0.7333  0.6960
  230POPC   C1213674   4.644   3.519   2.688  0.4787 -0.0453 -0.5163
  230POPC  H12A13675   4.716   3.472   2.623  1.2960  1.0167 -0.4022
  230POPC  H12B13676   4.545   3.483   2.665  0.5986  0.0785 -1.2439
  230POPC   C1313677   4.574   3.755   2.752  0.0102 -0.2622  0.3905
  230POPC  H13A13678   4.590   3.857   2.720 -0.7588 -0.4404 -0.6326
  230POPC  H13B13679   4.470   3.730   2.742  0.0057  0.3984 -1.7717
  230POPC  H13C13680   4.609   3.739   2.853 -0.6447 -1.4282  0.4557
  230POPC   C1413681   4.800   3.715   2.652 -0.2859 -0.5872 -0.2387
  230POPC  H14A13682   4.839   3.677   2.745 -0.7950  0.5659  0.4734
  230POPC  H14B13683   4.850   3.669   2.568 -0.9669  0.1311 -1.0614
  230POPC  H14C13684   4.808   3.823   2.646  3.5318 -0.7321  0.0144
  230POPC   C1513685   4.609   3.686   2.512  0.2297 -0.0161  0.6805
  230POPC  H15A13686   4.601   3.792   2.496 -1.0718 -0.3115 -0.8719
  230POPC  H15B13687   4.515   3.634   2.500  1.0332 -1.7869  1.6981
  230POPC  H15C13688   4.678   3.648   2.438  0.2268  0.8629  0.2168
  230POPC   C1113689   4.673   3.480   2.841 -0.1518  0.4381  0.3321
  230POPC  H11A13690   4.667   3.371   2.858 -0.4209  0.7114  2.1665
  230POPC  H11B13691   4.583   3.528   2.886 -0.4685 -0.2707  0.4657
  230POPC     P13692   4.922   3.462   2.943  0.0787 -0.3711 -0.2600
  230POPC   O1313693   5.016   3.560   3.001 -0.2306 -0.6639 -0.5111
  230POPC   O1413694   4.976   3.373   2.841  0.0790 -0.5625 -0.3297
  230POPC   O1213695   4.797   3.536   2.882 -0.0332  0.2488 -0.2618
  230POPC   O1113696   4.867   3.384   3.068  0.3293 -0.3492 -0.7387
  230POPC    C113697   4.769   3.454   3.148 -0.0546 -0.4621 -0.3641
  230POPC    HA13698   4.670   3.460   3.097 -0.1644  1.1226 -0.0320
  230POPC    HB13699   4.811   3.553   3.177  0.3208 -0.8653  0.5254
  230POPC    C213700   4.751   3.372   3.281  0.1604  0.4802  0.1169
  230POPC    HS13701   4.685   3.285   3.261 -0.6453  1.5397 -2.2636
  230POPC   O2113702   4.690   3.460   3.378 -0.0892  0.0083 -0.3714
  230POPC   C2113703   4.748   3.565   3.426  0.4955 -0.0957  0.1913
  230POPC   O2213704   4.865   3.600   3.400 -0.1190  0.6345 -0.9500
  230POPC   C2213705   4.654   3.629   3.535 -0.4471 -0.5200  0.4101
  230POPC   H2R13706   4.620   3.548   3.603 -1.7315  0.9726  1.6206
  230POPC   H2S13707   4.568   3.674   3.481 -1.1134 -1.3979  0.7046
  230POPC    C313708   4.890   3.322   3.331 -0.4374 -0.2335 -0.1173
  230POPC    HX13709   4.961   3.408   3.335 -1.3380  0.4915  0.8305
  230POPC    HY13710   4.927   3.246   3.259  0.4842  0.0410  0.0570
  230POPC   O3113711   4.874   3.251   3.462 -0.4074  0.7001  0.2604
  230POPC   C3113712   4.966   3.281   3.550 -0.2565  0.3923  0.2416
  230POPC   O3213713   5.058   3.355   3.538  0.0055  0.0005  0.3331
  230POPC   C3213714   4.946   3.212   3.678 -0.3299 -0.0011  0.5960
  230POPC   H2X13715   5.047   3.183   3.712 -1.2087 -3.4413  0.6647
  230POPC   H2Y13716   4.886   3.121   3.656  1.8663 -1.1825 -0.8360
  230POPC   C2313717   4.714   3.738   3.623  0.4841 -0.7734  0.3498
  230POPC   H3R13718   4.628   3.801   3.656  2.1928  1.2362  1.2139
  230POPC   H3S13719   4.782   3.812   3.575  1.7931  0.1442  3.4052
  230POPC   C2413720   4.792   3.692   3.749  0.3896 -0.0152  0.0133
  230POPC   H4R13721   4.882   3.639   3.710  1.2842  0.0931  1.7871
  230POPC   H4S13722   4.735   3.624   3.816  0.3936  0.1497  0.1863
  230POPC   C2513723   4.850   3.803   3.834 -0.0927 -0.3819 -0.1761
  230POPC   H5R13724   4.871   3.757   3.933  1.9079  0.0864 -0.3494
  230POPC   H5S13725   4.773   3.883   3.842 -0.5427 -0.9495  1.4177
  230POPC   C2613726   4.989   3.854   3.793 -0.4324 -0.8775  0.7138
  230POPC   H6R13727   4.977   3.944   3.730 -1.5311 -2.5730 -1.6464
  230POPC   H6S13728   5.048   3.785   3.729 -0.9412 -0.1471 -0.5824
  230POPC   C2713729   5.073   3.908   3.913  0.2638  0.2641 -0.1749
  230POPC   H7R13730   5.168   3.946   3.868 -1.3765  2.9478 -1.6817
  230POPC   H7S13731   5.096   3.820   3.976 -0.7264  0.9822  1.2371
  230POPC   C2813732   5.007   4.010   4.012 -0.4500 -0.3035  0.2183
  230POPC   H8R13733   5.057   4.019   4.110 -0.2689 -0.4789  0.1433
  230POPC   H8S13734   4.902   3.980   4.030 -1.6965  3.0322 -0.6093
  230POPC   C2913735   5.006   4.147   3.949 -0.3351  0.2985  0.6415
  230POPC   H9113736   5.070   4.150   3.860 -1.3063 -1.3282 -0.1620
  230POPC  C21013737   4.956   4.263   4.004 -0.3044  0.0337  0.4554
  230POPC  H10113738   4.966   4.361   3.955 -0.9969  0.5333  1.2804
  230POPC  C21113739   4.876   4.274   4.134 -0.8255  0.2730  0.1484
  230POPC  H11R13740   4.836   4.173   4.158  1.3528 -1.3129 -2.3447
  230POPC  H11S13741   4.793   4.347   4.119 -0.4422  0.4805 -1.0570
  230POPC  C21213742   4.982   4.320   4.240  0.6383  0.5502 -1.2065
  230POPC  H12R13743   5.034   4.414   4.214 -0.4124  1.2905 -0.6984
  230POPC  H12S13744   5.068   4.249   4.249 -0.3937 -0.6420 -0.3634
  230POPC  C21313745   4.923   4.340   4.383  0.2902  1.2670  0.1184
  230POPC  H13R13746   4.816   4.367   4.378 -1.1765 -3.2283  2.1898
  230POPC  H13S13747   4.981   4.424   4.428  0.5757  0.7524  0.7158
  230POPC  C21413748   4.927   4.224   4.485  0.4911 -0.0041  0.2294
  230POPC  H14R13749   4.929   4.262   4.589 -0.9282 -1.6136  0.8972
  230POPC  H14S13750   5.024   4.172   4.468  1.0165  0.4461  1.7759
  230POPC  C21513751   4.806   4.126   4.451  0.0925 -0.9321 -0.1795
  230POPC  H15R13752   4.848   4.059   4.372  2.1261  1.2469 -1.0572
  230POPC  H15S13753   4.723   4.177   4.398  1.2163  0.4798 -0.6587
  230POPC  C21613754   4.757   4.032   4.566 -1.1329  0.0301 -0.2550
  230POPC  H16R13755   4.842   3.985   4.618 -1.7198  1.9485  2.6528
  230POPC  H16S13756   4.693   3.947   4.532  0.6079 -0.6864 -1.9277
  230POPC  C21713757   4.682   4.112   4.670 -0.1980 -0.1328 -0.1407
  230POPC  H17R13758   4.608   4.180   4.624  0.4763 -0.4335 -1.7311
  230POPC  H17S13759   4.762   4.167   4.724 -0.3588 -0.5436  0.5291
  230POPC  C21813760   4.600   4.023   4.772  0.1945 -0.6924  0.8770
  230POPC  H18R13761   4.656   3.938   4.816  1.0627 -2.3024 -2.9449
  230POPC  H18S13762   4.510   3.983   4.722 -0.2671 -1.3258  2.1682
  230POPC  H18T13763   4.565   4.091   4.853  1.0049 -0.1013  0.7493
  230POPC   C3313764   4.878   3.303   3.786  0.1016  0.6723  0.2126
  230POPC   H3X13765   4.777   3.324   3.746 -0.7674 -0.7610  1.5045
  230POPC   H3Y13766   4.945   3.388   3.810  0.1937  0.0797  2.2646
  230POPC   C3413767   4.849   3.225   3.917  0.4246  0.9150 -0.4215
  230POPC   H4X13768   4.941   3.176   3.955 -0.6626 -0.7269  0.2046
  230POPC   H4Y13769   4.771   3.151   3.891 -0.0178  0.8069  1.1196
  230POPC   C3513770   4.780   3.317   4.026  0.1829  0.2660  0.3405
  230POPC   H5X13771   4.855   3.399   4.027  1.6817 -1.0480 -0.2210
  230POPC   H5Y13772   4.785   3.261   4.121  0.3839 -0.6731 -0.2118
  230POPC   C3613773   4.633   3.362   4.013  1.1426  0.1777  0.2429
  230POPC   H6X13774   4.580   3.274   3.971 -0.9028  0.5092  1.9504
  230POPC   H6Y13775   4.636   3.447   3.941  0.9543  1.6958  1.9501
  230POPC   C3713776   4.562   3.397   4.143 -0.4185 -0.1283  0.7000
  230POPC   H7X13777   4.544   3.303   4.199 -0.8308 -1.3471 -1.3952
  230POPC   H7Y13778   4.464   3.441   4.113 -0.4942 -0.6589  0.1446
  230POPC   C3813779   4.631   3.515   4.228 -0.2509  0.4972  0.7347
  230POPC   H8X13780   4.718   3.474   4.282  0.9558  0.3116 -1.2244
  230POPC   H8Y13781   4.561   3.558   4.303 -0.0003  4.3620 -0.9825
  230POPC   C3913782   4.686   3.634   4.151  0.0433 -0.4896 -0.0954
  230POPC   H9X13783   4.598   3.687   4.109 -0.2918 -1.3559 -0.5183
  230POPC   H9Y13784   4.752   3.618   4.064  0.7286 -1.4585  0.5774
  230POPC  C31013785   4.746   3.735   4.243  0.1029  0.1897 -0.4649
  230POPC  H10X13786   4.683   3.751   4.333  0.0975 -0.8023 -0.2760
  230POPC  H10Y13787   4.758   3.836   4.198  2.1561 -0.4653 -1.5124
  230POPC  C31113788   4.895   3.696   4.284  0.4664 -0.0569  0.4017
  230POPC  H11X13789   4.948   3.679   4.187  0.8693 -0.6251  0.7088
  230POPC  H11Y13790   4.902   3.602   4.344  0.6412 -0.2935  0.0189
  230POPC  C31213791   4.977   3.807   4.356 -0.5624  0.0334 -0.5073
  230POPC  H12X13792   4.927   3.837   4.450 -0.9221 -0.4478 -0.5373
  230POPC  H12Y13793   4.982   3.893   4.286  1.3828  0.2014 -0.2158
  230POPC  C31313794   5.120   3.762   4.392  0.5644 -0.0391 -0.1375
  230POPC  H13X13795   5.167   3.737   4.294  1.2866  0.9546 -0.0618
  230POPC  H13Y13796   5.115   3.676   4.462 -1.6802 -0.8678 -1.2209
  230POPC  C31413797   5.196   3.877   4.471  0.1161 -0.1010 -0.0812
  230POPC  H14X13798   5.149   3.906   4.567  1.8182  1.9380  0.2095
  230POPC  H14Y13799   5.213   3.962   4.402 -0.5887  0.4747  0.4457
  230POPC  C31513800   5.341   3.822   4.515  0.1654  0.2623 -0.3792
  230POPC  H15X13801   5.402   3.911   4.541 -0.7696 -0.0229  3.3585
  230POPC  H15Y13802   5.401   3.776   4.434  2.0404  0.5943  0.7686
  230POPC  C31613803   5.327   3.733   4.636  0.0095  0.2179 -0.0201
  230POPC  H16X13804   5.418   3.670   4.650  1.0887  1.9847  1.2748
  230POPC  H16Y13805   5.246   3.657   4.637 -0.1208  0.2882 -1.9668
  230POPC  H16Z13806   5.310   3.793   4.728 -2.2803 -1.5766  0.8255
  231POPC     N13807   0.338   5.891   2.443  0.3424  0.2101  0.4026
  231POPC   C1213808   0.412   5.848   2.571 -0.3367  0.9909 -0.2025
  231POPC  H12A13809   0.477   5.767   2.539 -1.1363  0.1116  0.3344
  231POPC  H12B13810   0.345   5.802   2.642 -0.3201  0.2317 -0.6633
  231POPC   C1313811   0.439   5.915   2.336  0.8051  0.3140  0.2502
  231POPC  H13A13812   0.385   5.961   2.255  1.4566 -0.0019 -0.3685
  231POPC  H13B13813   0.511   5.989   2.367 -0.6335  1.8784 -0.0417
  231POPC  H13C13814   0.486   5.825   2.298  1.1774  0.9775 -0.8694
  231POPC   C1413815   0.261   5.772   2.404  0.7031  0.3521 -0.1337
  231POPC  H14A13816   0.234   5.781   2.300 -0.0275  1.5833  0.1451
  231POPC  H14B13817   0.315   5.679   2.415  0.2864  0.0008 -0.9734
  231POPC  H14C13818   0.172   5.749   2.461 -0.0281 -1.6800 -1.9697
  231POPC   C1513819   0.258   6.010   2.466  0.2755 -0.0748 -0.3650
  231POPC  H15A13820   0.215   6.053   2.377 -2.1528  1.2915  1.3547
  231POPC  H15B13821   0.316   6.086   2.515  1.7844 -1.0009 -0.6415
  231POPC  H15C13822   0.180   5.988   2.538 -0.2956  1.9757 -0.3012
  231POPC   C1113823   0.502   5.947   2.645 -0.2810  1.0054  0.6402
  231POPC  H11A13824   0.515   5.934   2.755 -2.0690  0.4692  0.8219
  231POPC  H11B13825   0.452   6.046   2.649 -0.1793  1.0219  1.7917
  231POPC     P13826   0.743   5.847   2.608  0.0014 -0.4325  0.3171
  231POPC   O1313827   0.872   5.875   2.546 -0.3657  0.0806  0.1475
  231POPC   O1413828   0.686   5.718   2.578  0.2460 -0.0933  0.2527
  231POPC   O1213829   0.630   5.960   2.584  0.1050 -0.4585  0.0575
  231POPC   O1113830   0.765   5.864   2.768 -0.0668 -0.0150 -0.5615
  231POPC    C113831   0.776   5.986   2.834 -0.6700 -0.7165  0.2381
  231POPC    HA13832   0.689   6.055   2.821 -1.4412 -1.3999  1.5365
  231POPC    HB13833   0.872   6.030   2.798  0.7222 -4.7769 -1.5110
  231POPC    C213834   0.800   5.959   2.986 -0.1093 -0.1170  0.5727
  231POPC    HS13835   0.864   5.869   2.978 -1.8827 -1.2827 -1.7464
  231POPC   O2113836   0.676   5.929   3.053 -0.6409  0.3761 -0.2155
  231POPC   C2113837   0.709   5.853   3.157  0.2468 -0.9439 -0.2092
  231POPC   O2213838   0.819   5.822   3.199 -0.3218  0.4629 -0.5471
  231POPC   C2213839   0.581   5.822   3.231  0.4755  0.4689  0.2521
  231POPC   H2R13840   0.563   5.723   3.183  0.7837  0.2012  0.6891
  231POPC   H2S13841   0.499   5.896   3.213  0.2405 -0.1832 -1.5227
  231POPC    C313842   0.872   6.070   3.053  0.2299  0.3640  0.6323
  231POPC    HX13843   0.966   6.084   2.995  1.9685 -0.9801  2.9514
  231POPC    HY13844   0.897   6.048   3.159  1.2057  0.5566  0.4544
  231POPC   O3113845   0.799   6.200   3.053  0.1582  0.4667  0.1700
  231POPC   C3113846   0.707   6.210   3.139  0.0662  0.0237 -0.8582
  231POPC   O3213847   0.681   6.133   3.231  0.2501  0.1916 -0.6292
  231POPC   C3213848   0.629   6.336   3.104  0.0118 -0.5224 -0.1159
  231POPC   H2X13849   0.658   6.382   3.007 -0.9070  0.3655  0.0177
  231POPC   H2Y13850   0.678   6.413   3.168  0.0575  1.0044 -1.9073
  231POPC   C2313851   0.599   5.808   3.384 -0.9422  0.8812 -0.0468
  231POPC   H3R13852   0.593   5.909   3.432 -1.8298  0.2191  1.3210
  231POPC   H3S13853   0.702   5.773   3.408 -0.2141  1.7067 -1.7552
  231POPC   C2413854   0.496   5.723   3.452 -0.8042  0.5570 -0.2952
  231POPC   H4R13855   0.489   5.624   3.402  0.6055  0.2600  0.0296
  231POPC   H4S13856   0.403   5.783   3.459  0.1413  2.1560 -0.9263
  231POPC   C2513857   0.547   5.702   3.597 -0.1686 -0.3413  0.1784
  231POPC   H5R13858   0.551   5.801   3.648 -0.2349  0.4901 -1.3378
  231POPC   H5S13859   0.649   5.661   3.585 -0.4028 -0.3320 -2.4794
  231POPC   C2613860   0.454   5.610   3.684 -0.0920 -0.1215 -0.0388
  231POPC   H6R13861   0.512   5.589   3.776  0.9080  0.0979 -0.5916
  231POPC   H6S13862   0.455   5.518   3.622 -0.7552 -0.4380  0.4169
  231POPC   C2713863   0.311   5.665   3.710 -0.5097 -0.2776 -0.1463
  231POPC   H7R13864   0.277   5.586   3.781 -1.6987  3.0160  3.2936
  231POPC   H7S13865   0.251   5.680   3.617 -2.9764 -0.6769  1.2790
  231POPC   C2813866   0.308   5.796   3.794 -0.3582  0.1659  0.0266
  231POPC   H8R13867   0.310   5.885   3.727 -1.0213  0.3652  0.2652
  231POPC   H8S13868   0.396   5.802   3.863  0.2601 -0.0958 -0.7199
  231POPC   C2913869   0.180   5.812   3.877  0.2681  0.2296 -0.6754
  231POPC   H9113870   0.091   5.845   3.822 -1.9545 -1.0184  1.9225
  231POPC  C21013871   0.177   5.855   4.007  0.0918  0.8724  0.1047
  231POPC  H10113872   0.086   5.849   4.069  0.2252 -1.9450  0.1535
  231POPC  C21113873   0.291   5.867   4.098 -0.7246  0.0554 -0.3284
  231POPC  H11R13874   0.310   5.976   4.104 -1.6677  0.2751 -1.0473
  231POPC  H11S13875   0.378   5.810   4.058 -0.7091 -0.6895  0.7303
  231POPC  C21213876   0.249   5.827   4.241  0.3248  0.0270  0.0369
  231POPC  H12R13877   0.147   5.858   4.271 -0.5663 -1.2682 -1.4750
  231POPC  H12S13878   0.329   5.864   4.308  0.7080 -0.6425 -0.0351
  231POPC  C21313879   0.244   5.668   4.259 -0.0801 -0.5828 -0.0606
  231POPC  H13R13880   0.332   5.625   4.207  0.0847  1.3536 -1.4490
  231POPC  H13S13881   0.162   5.615   4.205 -1.1241 -0.1257  1.0235
  231POPC  C21413882   0.245   5.612   4.405 -0.6042  0.0470  0.0206
  231POPC  H14R13883   0.335   5.656   4.454  0.5801 -1.8873 -0.3421
  231POPC  H14S13884   0.275   5.506   4.413  0.6574  0.3121 -0.8959
  231POPC  C21513885   0.116   5.644   4.484 -0.0179 -0.3012  0.2311
  231POPC  H15R13886   0.034   5.590   4.432  0.0109 -0.8722  0.7578
  231POPC  H15S13887   0.108   5.752   4.506  2.1876 -0.1185  0.3780
  231POPC  C21613888   0.113   5.594   4.629  0.8524  0.6072 -0.1458
  231POPC  H16R13889   0.152   5.492   4.610  0.0724  0.4512 -0.9759
  231POPC  H16S13890   0.011   5.573   4.667  0.0607  1.4114 -1.7476
  231POPC  C21713891   0.209   5.653   4.731  0.2817  0.2996  0.4697
  231POPC  H17R13892   0.304   5.682   4.682  0.9543 -1.2781  0.7733
  231POPC  H17S13893   0.230   5.569   4.802  0.3218 -2.0602 -2.1710
  231POPC  C21813894   0.146   5.770   4.809 -0.6616 -0.1601  0.2102
  231POPC  H18R13895   0.217   5.791   4.892  0.4650 -1.9095 -0.2657
  231POPC  H18S13896   0.049   5.737   4.852 -1.6795 -0.3485 -2.1174
  231POPC  H18T13897   0.137   5.863   4.750  1.1098 -0.1546 -0.0984
  231POPC   C3313898   0.475   6.343   3.134 -0.6863  0.7089 -0.9393
  231POPC   H3X13899   0.450   6.445   3.170 -0.5908 -0.9141  4.7025
  231POPC   H3Y13900   0.449   6.287   3.227 -1.4409 -0.4545 -1.8221
  231POPC   C3413901   0.393   6.282   3.015 -0.4037 -0.7479 -0.5610
  231POPC   H4X13902   0.419   6.175   3.004 -0.4002 -0.9506  1.1151
  231POPC   H4Y13903   0.422   6.324   2.916 -1.2119 -1.6468 -1.1895
  231POPC   C3513904   0.240   6.292   3.028 -0.1584  0.0964  0.7203
  231POPC   H5X13905   0.196   6.284   2.926  2.0916 -0.8149 -0.2737
  231POPC   H5Y13906   0.216   6.390   3.074 -0.3046  1.1801 -1.5151
  231POPC   C3613907   0.162   6.201   3.120 -0.3432 -0.2812 -0.5389
  231POPC   H6X13908   0.215   6.105   3.138 -0.0062 -0.2829 -1.4757
  231POPC   H6Y13909   0.066   6.171   3.073 -1.5110  0.7224  1.1085
  231POPC   C3713910   0.135   6.262   3.255 -0.0992 -0.5613 -0.5292
  231POPC   H7X13911   0.053   6.337   3.251 -1.8377 -2.4261 -2.0733
  231POPC   H7Y13912   0.231   6.305   3.291 -0.2420 -0.3366 -0.4147
  231POPC   C3813913   0.091   6.159   3.360  0.3591  0.1086 -0.7391
  231POPC   H8X13914   0.173   6.086   3.374 -1.0150 -1.1999  0.9485
  231POPC   H8Y13915   0.002   6.105   3.321 -0.5241 -0.0515  1.4054
  231POPC   C3913916   0.032   6.214   3.491  0.6366  0.0045 -0.8714
  231POPC   H9X13917  -0.079   6.224   3.485  0.7637  2.2335 -0.3650
  231POPC   H9Y13918   0.075   6.314   3.512 -0.4667  0.2421  0.3804
  231POPC  C31013919   0.060   6.130   3.617  0.4109  0.5632 -0.5751
  231POPC  H10X13920   0.166   6.127   3.650 -0.1109 -1.7954  1.1288
  231POPC  H10Y13921   0.041   6.025   3.585  0.0057  0.8115 -1.1704
  231POPC  C31113922   6.407   6.159   3.735  0.0516 -0.4078 -0.1356
  231POPC  H11X13923   6.424   6.082   3.813  0.2132  0.0145  0.2451
  231POPC  H11Y13924   6.301   6.140   3.707 -0.1841 -0.5236  0.8115
  231POPC  C31213925   6.421   6.298   3.804  0.2101 -0.6336  0.5662
  231POPC  H12X13926   6.366   6.381   3.754 -1.5903 -0.9343  1.9612
  231POPC  H12Y13927   6.528   6.329   3.805  0.0444  0.0999 -0.7314
  231POPC  C31313928   6.359   6.308   3.943  0.1373 -0.0938 -0.9795
  231POPC  H13X13929   6.374   6.408   3.991 -0.4235 -0.1732 -0.6380
  231POPC  H13Y13930   6.391   6.231   4.016  0.6674  1.1479  0.1439
  231POPC  C31413931   6.206   6.288   3.954  1.0431  0.8531 -0.0794
  231POPC  H14X13932   6.174   6.204   3.889  0.5884 -1.0220  2.3897
  231POPC  H14Y13933   6.146   6.377   3.926 -1.2270 -0.2682  0.9642
  231POPC  C31513934   6.161   6.226   4.091 -0.7618  0.4186 -0.0686
  231POPC  H15X13935   6.223   6.141   4.124 -1.3339  0.4808  1.2375
  231POPC  H15Y13936   6.060   6.183   4.077 -0.6388 -0.0630  0.4696
  231POPC  C31613937   6.157   6.333   4.199  0.5359 -0.4194  0.0082
  231POPC  H16X13938   6.119   6.283   4.291 -1.5585  2.3022  0.7692
  231POPC  H16Y13939   6.090   6.418   4.173  2.4576  1.1672 -0.0486
  231POPC  H16Z13940   6.263   6.362   4.221  0.8396 -0.0575 -1.8195
  232POPC     N13941   2.428   3.411   2.431  0.8486 -0.2326  0.0982
  232POPC   C1213942   2.430   3.396   2.576  0.0578  0.0141 -0.3957
  232POPC  H12A13943   2.533   3.393   2.610  0.2470  1.3802 -0.7869
  232POPC  H12B13944   2.410   3.292   2.600  1.5379 -0.6525 -1.8377
  232POPC   C1313945   2.506   3.308   2.353 -0.7285 -0.1410  0.1056
  232POPC  H13A13946   2.609   3.309   2.385 -0.9554  0.8192  0.8520
  232POPC  H13B13947   2.463   3.212   2.377  1.5700 -0.3432  4.3392
  232POPC  H13C13948   2.489   3.323   2.248 -0.0823  2.9826  0.3484
  232POPC   C1413949   2.291   3.399   2.367  0.2272 -0.1581  0.7410
  232POPC  H14A13950   2.248   3.302   2.388  1.3611 -1.0510 -0.8382
  232POPC  H14B13951   2.229   3.472   2.416 -0.1269 -0.4716  0.7619
  232POPC  H14C13952   2.297   3.411   2.260  1.8849 -1.4621  0.6512
  232POPC   C1513953   2.489   3.541   2.394  0.3178 -0.2666  0.6607
  232POPC  H15A13954   2.425   3.625   2.417  1.0717  0.8707 -1.1605
  232POPC  H15B13955   2.531   3.548   2.295 -2.3745  0.2430 -0.5315
  232POPC  H15C13956   2.575   3.562   2.456 -0.1989  1.7606  0.7681
  232POPC   C1113957   2.349   3.497   2.665 -0.4111  0.5004  0.5321
  232POPC  H11A13958   2.400   3.589   2.627  0.9017 -0.9672 -1.4974
  232POPC  H11B13959   2.366   3.490   2.774  0.6569  0.1957  0.3547
  232POPC     P13960   2.102   3.418   2.685 -0.1497 -0.1156 -0.2637
  232POPC   O1313961   2.095   3.293   2.614 -0.3206  0.2280 -0.0828
  232POPC   O1413962   1.991   3.515   2.681 -0.1242  0.6436 -0.4998
  232POPC   O1213963   2.214   3.502   2.623  0.1012 -0.8976  0.0170
  232POPC   O1113964   2.141   3.406   2.838 -0.6987 -0.2094  0.2306
  232POPC    C113965   2.082   3.309   2.932  0.5629  0.4688 -0.4425
  232POPC    HA13966   2.052   3.219   2.874 -0.9560  1.3700 -1.1059
  232POPC    HB13967   1.991   3.354   2.977  1.1405  1.4311 -0.2200
  232POPC    C213968   2.175   3.257   3.039 -0.6989 -0.3555 -0.4524
  232POPC    HS13969   2.140   3.156   3.070  0.8504 -1.1945 -1.2748
  232POPC   O2113970   2.181   3.342   3.151  0.5787  0.1464 -0.5134
  232POPC   C2113971   2.072   3.350   3.235  0.3536  0.3882  0.6701
  232POPC   O2213972   1.975   3.281   3.214  0.1484 -0.2981  0.7630
  232POPC   C2213973   2.080   3.448   3.353  0.3800  0.2904 -0.5842
  232POPC   H2R13974   2.089   3.550   3.312  0.3443  0.4014 -0.3193
  232POPC   H2S13975   2.173   3.420   3.408  0.1831 -1.5447 -1.1087
  232POPC    C313976   2.320   3.236   2.977  0.6778  0.8600 -0.1936
  232POPC    HX13977   2.356   3.329   2.928  0.6446  0.4712 -0.9842
  232POPC    HY13978   2.301   3.166   2.892  0.9376 -0.7460  1.0198
  232POPC   O3113979   2.418   3.177   3.060 -0.3647 -0.0099 -0.3877
  232POPC   C3113980   2.485   3.264   3.129  0.5581  0.1918 -0.1763
  232POPC   O3213981   2.491   3.384   3.105  0.3137  0.0147 -0.2414
  232POPC   C3213982   2.586   3.197   3.217 -0.6956 -0.4067 -0.2254
  232POPC   H2X13983   2.689   3.222   3.184 -0.6494  2.4042  1.6492
  232POPC   H2Y13984   2.571   3.089   3.198 -0.3888  0.0649 -4.0456
  232POPC   C2313985   1.969   3.438   3.468 -0.0774  0.1691 -0.1764
  232POPC   H3R13986   1.968   3.331   3.497  1.4602  0.5202  1.3378
  232POPC   H3S13987   1.864   3.454   3.438 -0.3148  2.3459  1.5078
  232POPC   C2413988   1.981   3.520   3.601 -0.7662 -0.3927  0.2148
  232POPC   H4R13989   1.965   3.628   3.578  1.8505  0.0954  0.3365
  232POPC   H4S13990   2.087   3.516   3.635 -0.4113  1.4957 -0.5207
  232POPC   C2513991   1.889   3.476   3.716 -0.5219  0.7522  0.0901
  232POPC   H5R13992   1.901   3.372   3.754  0.3734  1.2206  1.1751
  232POPC   H5S13993   1.788   3.474   3.670 -1.8342 -0.8781  2.7473
  232POPC   C2613994   1.893   3.571   3.834  0.4965  0.7132 -0.3081
  232POPC   H6R13995   1.900   3.674   3.793  1.4690  0.2895 -1.2450
  232POPC   H6S13996   1.982   3.556   3.898  0.5964  1.1368 -0.3462
  232POPC   C2713997   1.767   3.567   3.924  0.5624 -0.2405  0.2457
  232POPC   H7R13998   1.684   3.615   3.868  0.3279 -0.1969  0.6274
  232POPC   H7S13999   1.791   3.631   4.011  1.7419 -0.2406 -0.0622
  232POPC   C2814000   1.717   3.427   3.964  0.6037 -0.2030  0.6708
  232POPC   H8R14001   1.684   3.375   3.871 -0.1331  0.8029  0.3444
  232POPC   H8S14002   1.623   3.443   4.020 -1.0704  0.8005 -2.1773
  232POPC   C2914003   1.821   3.357   4.046  0.4014  0.0201  0.2235
  232POPC   H9114004   1.915   3.332   3.996 -0.2307  0.3889 -1.1915
  232POPC  C21014005   1.806   3.302   4.169 -0.1452 -0.1246 -0.7914
  232POPC  H10114006   1.899   3.272   4.219 -0.3543  0.2709 -0.1521
  232POPC  C21114007   1.683   3.303   4.258 -0.7100  0.3660 -0.3337
  232POPC  H11R14008   1.591   3.330   4.202 -1.3300  0.8399  0.8684
  232POPC  H11S14009   1.690   3.387   4.330 -0.5111  1.7964 -1.9600
  232POPC  C21214010   1.657   3.164   4.333 -0.3460 -0.4560  0.6597
  232POPC  H12R14011   1.557   3.168   4.381 -0.5703 -1.2045  0.2722
  232POPC  H12S14012   1.731   3.155   4.415 -0.6066 -0.7915  0.8601
  232POPC  C21314013   1.658   3.041   4.238 -0.1007 -0.1555  0.2006
  232POPC  H13R14014   1.761   3.029   4.198  0.5930  0.6584  1.6479
  232POPC  H13S14015   1.591   3.063   4.153 -1.6785  0.9465  1.6647
  232POPC  C21414016   1.605   2.915   4.313 -0.1116 -0.6680  0.8573
  232POPC  H14R14017   1.598   2.834   4.237  0.3780 -0.0576  0.1503
  232POPC  H14S14018   1.506   2.949   4.349 -1.5835 -2.3689 -1.2992
  232POPC  C21514019   1.694   2.865   4.427 -0.1226  0.3812  0.1377
  232POPC  H15R14020   1.664   2.904   4.526 -2.0297 -3.4101  1.2522
  232POPC  H15S14021   1.797   2.905   4.417  0.5473 -0.3739  3.1213
  232POPC  C21614022   1.706   2.714   4.438  0.2944  0.0128  0.6970
  232POPC  H16R14023   1.761   2.677   4.348  0.9870  1.0589  0.6715
  232POPC  H16S14024   1.611   2.657   4.437  1.5330 -2.1619  0.6984
  232POPC  C21714025   1.782   2.675   4.559  0.0420  1.2537  0.2259
  232POPC  H17R14026   1.799   2.566   4.548 -0.2236  1.1433  0.8555
  232POPC  H17S14027   1.700   2.662   4.633  1.0904  0.3166  1.2831
  232POPC  C21814028   1.905   2.749   4.604  0.0394  0.6549  0.1841
  232POPC  H18R14029   1.966   2.751   4.511 -2.1402  2.3325 -1.3275
  232POPC  H18S14030   1.964   2.699   4.682 -1.4459 -0.4138  0.6674
  232POPC  H18T14031   1.870   2.852   4.627 -2.7193  0.2594 -1.6686
  232POPC   C3314032   2.554   3.240   3.361 -1.3665  0.4626 -0.1178
  232POPC   H3X14033   2.570   3.350   3.373  2.4999 -0.1027  1.6766
  232POPC   H3Y14034   2.626   3.182   3.423 -0.3423  0.8265 -0.9177
  232POPC   C3414035   2.416   3.199   3.404  0.2940 -0.5089 -0.6077
  232POPC   H4X14036   2.401   3.095   3.370  0.4851  0.1746 -2.9578
  232POPC   H4Y14037   2.342   3.274   3.368 -0.7672 -0.5637  1.3165
  232POPC   C3514038   2.411   3.192   3.557 -0.1923 -0.1905  0.8568
  232POPC   H5X14039   2.461   3.275   3.611  0.9953 -1.6912  2.1550
  232POPC   H5Y14040   2.468   3.101   3.583 -0.0191 -0.6028 -0.8599
  232POPC   C3614041   2.270   3.172   3.611 -0.6892  0.0491 -0.5254
  232POPC   H6X14042   2.229   3.074   3.578  1.9323 -2.4169  2.8449
  232POPC   H6Y14043   2.196   3.252   3.593 -1.9656 -0.7817  0.7469
  232POPC   C3714044   2.262   3.164   3.772  0.8299 -0.8413 -0.0613
  232POPC   H7X14045   2.331   3.078   3.788  2.9548  0.5824 -1.1886
  232POPC   H7Y14046   2.160   3.136   3.806 -1.0162  2.6153 -2.1763
  232POPC   C3814047   2.319   3.286   3.851  0.9182 -0.2204  0.0106
  232POPC   H8X14048   2.249   3.372   3.840  1.8652  0.7286  1.2370
  232POPC   H8Y14049   2.421   3.318   3.819  0.2470  1.4578 -0.5909
  232POPC   C3914050   2.311   3.258   3.997  0.0374 -0.4646 -0.6031
  232POPC   H9X14051   2.357   3.159   4.021  0.9108  0.0550 -0.0780
  232POPC   H9Y14052   2.206   3.239   4.026  0.7295  0.3527  3.0796
  232POPC  C31014053   2.365   3.371   4.091  0.2826  0.8472 -0.1644
  232POPC  H10X14054   2.316   3.470   4.079 -0.5240  1.2007  4.3578
  232POPC  H10Y14055   2.474   3.391   4.084  0.3424  0.5275 -0.1582
  232POPC  C31114056   2.343   3.342   4.242 -0.4288 -0.5912  0.1128
  232POPC  H11X14057   2.319   3.234   4.254 -0.5886 -0.3337  2.6013
  232POPC  H11Y14058   2.258   3.400   4.283  0.3182 -0.5083  1.6341
  232POPC  C31214059   2.467   3.375   4.332  0.4885 -0.1155 -0.4723
  232POPC  H12X14060   2.553   3.313   4.302  0.5699 -0.5547  0.6347
  232POPC  H12Y14061   2.441   3.349   4.437  2.3129 -1.1209 -0.2317
  232POPC  C31314062   2.505   3.525   4.318 -0.1012  0.1738  0.1424
  232POPC  H13X14063   2.410   3.581   4.305 -2.1170 -3.2164 -1.0363
  232POPC  H13Y14064   2.558   3.534   4.221 -1.8316 -0.6322 -0.9195
  232POPC  C31414065   2.587   3.573   4.437  0.0129 -0.1575  0.5891
  232POPC  H14X14066   2.507   3.601   4.510 -1.3295  0.8563 -1.2010
  232POPC  H14Y14067   2.646   3.664   4.412 -0.3320 -0.3681 -1.0849
  232POPC  C31514068   2.686   3.478   4.492 -0.0765  0.1782  0.0984
  232POPC  H15X14069   2.735   3.420   4.411  3.0966  0.2782  1.7837
  232POPC  H15Y14070   2.640   3.403   4.561  3.3197 -0.1495  2.2429
  232POPC  C31614071   2.787   3.549   4.581 -0.3498 -0.6018  0.0386
  232POPC  H16X14072   2.846   3.476   4.640 -1.4504 -1.7325 -0.2077
  232POPC  H16Y14073   2.730   3.610   4.654 -2.6563 -1.4597 -0.9514
  232POPC  H16Z14074   2.849   3.613   4.514 -0.5048 -1.1612 -0.6508
  233POPC     N14075   3.544   2.365   2.499 -0.8117 -0.2705 -0.0473
  233POPC   C1214076   3.636   2.484   2.519  0.2069  1.1683 -0.6522
  233POPC  H12A14077   3.589   2.576   2.485 -0.6421  0.5738 -1.1338
  233POPC  H12B14078   3.721   2.469   2.455  0.8338  0.5151  0.3182
  233POPC   C1314079   3.613   2.237   2.544 -0.3228 -0.2959  0.7202
  233POPC  H13A14080   3.709   2.223   2.498 -0.3152  0.4209  0.5084
  233POPC  H13B14081   3.636   2.239   2.650  0.9843  0.3783  0.4392
  233POPC  H13C14082   3.544   2.157   2.523 -0.6797 -0.5076  2.5067
  233POPC   C1414083   3.406   2.383   2.557 -1.0063  0.3927 -0.2556
  233POPC  H14A14084   3.415   2.406   2.662  1.4929  2.6357 -0.8718
  233POPC  H14B14085   3.370   2.472   2.508 -0.7954  0.8887  0.4884
  233POPC  H14C14086   3.339   2.299   2.545  2.3291 -3.3327  3.7110
  233POPC   C1514087   3.529   2.355   2.346  0.0452 -0.3151 -0.4903
  233POPC  H15A14088   3.476   2.442   2.311  1.4909  1.2949  1.0685
  233POPC  H15B14089   3.486   2.262   2.312  0.6311 -0.2333 -1.4948
  233POPC  H15C14090   3.623   2.357   2.292  0.1081 -2.2400 -0.5175
  233POPC   C1114091   3.692   2.507   2.664  0.9984  0.4061 -0.2349
  233POPC  H11A14092   3.773   2.582   2.646 -0.1917  1.4195 -1.5898
  233POPC  H11B14093   3.735   2.415   2.709 -0.5971 -0.3607 -0.2327
  233POPC     P14094   3.550   2.707   2.749 -0.6153  0.2845  0.3241
  233POPC   O1314095   3.409   2.728   2.764  0.4332  0.2758 -0.5189
  233POPC   O1414096   3.608   2.773   2.628 -0.2029 -0.4702 -0.5582
  233POPC   O1214097   3.589   2.553   2.749 -0.0075 -0.2738  0.5684
  233POPC   O1114098   3.626   2.765   2.870  0.1064  0.2932 -0.0815
  233POPC    C114099   3.736   2.720   2.947  0.0729 -0.1579 -1.0339
  233POPC    HA14100   3.825   2.780   2.919  0.3887  0.2108  0.6792
  233POPC    HB14101   3.759   2.614   2.924 -1.6149 -0.3703 -1.9708
  233POPC    C214102   3.703   2.737   3.100 -0.0710 -0.2672  0.7427
  233POPC    HS14103   3.779   2.670   3.148  1.5339  2.0484  1.6253
  233POPC   O2114104   3.575   2.690   3.127  0.1642 -0.5020 -0.2566
  233POPC   C2114105   3.563   2.663   3.258  0.4190 -0.6320  0.2523
  233POPC   O2214106   3.649   2.643   3.343  0.5093 -0.1182  0.1307
  233POPC   C2214107   3.419   2.666   3.299 -0.8153  0.2341 -0.2979
  233POPC   H2R14108   3.370   2.762   3.274 -1.8253 -0.6421 -1.9130
  233POPC   H2S14109   3.410   2.651   3.409 -1.0814  1.6084 -0.1201
  233POPC    C314110   3.735   2.883   3.147  0.6080  0.1370 -0.0476
  233POPC    HX14111   3.656   2.957   3.119  1.2503  1.8767  2.3820
  233POPC    HY14112   3.829   2.912   3.095  0.7824 -0.4903 -0.0822
  233POPC   O3114113   3.733   2.894   3.290 -0.3946  0.0171 -0.2765
  233POPC   C3114114   3.851   2.923   3.345 -0.2431 -0.3467  1.1357
  233POPC   O3214115   3.963   2.925   3.299 -0.4062 -0.0796  0.3403
  233POPC   C3214116   3.817   2.933   3.495 -0.1100  0.0628  0.3547
  233POPC   H2X14117   3.824   2.831   3.539  1.4069  0.1546  0.3715
  233POPC   H2Y14118   3.711   2.963   3.503 -0.8714 -2.1453 -0.6066
  233POPC   C2314119   3.336   2.552   3.230  0.4333 -0.4220  0.0108
  233POPC   H3R14120   3.364   2.458   3.283  2.1433 -0.5278 -1.0175
  233POPC   H3S14121   3.347   2.553   3.120  0.2630  2.2931 -0.0475
  233POPC   C2414122   3.183   2.571   3.248  0.4613 -0.0776  0.9182
  233POPC   H4R14123   3.159   2.647   3.170  4.3193  0.3517 -0.0619
  233POPC   H4S14124   3.162   2.625   3.343  2.4640  0.0161  1.3509
  233POPC   C2514125   3.095   2.443   3.220 -0.0744  0.0175 -0.6287
  233POPC   H5R14126   3.120   2.414   3.116  0.4260 -0.9834 -0.2467
  233POPC   H5S14127   2.989   2.474   3.218  0.0305  0.3387 -1.4934
  233POPC   C2614128   3.108   2.334   3.325  0.0085 -0.1135  0.1794
  233POPC   H6R14129   3.136   2.392   3.415  1.0071 -0.9564  0.4357
  233POPC   H6S14130   3.187   2.263   3.293 -0.5336 -0.9161  0.5819
  233POPC   C2714131   2.980   2.244   3.352  0.1033  0.1928 -0.1449
  233POPC   H7R14132   3.015   2.150   3.401  0.3052  0.1591 -0.3511
  233POPC   H7S14133   2.926   2.222   3.257  1.3728  3.0818 -1.6579
  233POPC   C2814134   2.876   2.311   3.450 -0.0665  0.9562 -0.3782
  233POPC   H8R14135   2.833   2.401   3.402 -2.1098 -0.4473 -1.3340
  233POPC   H8S14136   2.935   2.345   3.538  2.0588 -1.6201 -0.6834
  233POPC   C2914137   2.766   2.217   3.493 -0.2163 -0.5956  0.1867
  233POPC   H9114138   2.692   2.198   3.414 -1.3855  1.8649  0.6078
  233POPC  C21014139   2.756   2.150   3.610  0.8601 -0.2008  0.8720
  233POPC  H10114140   2.662   2.096   3.629  0.7645 -0.1508  0.5574
  233POPC  C21114141   2.846   2.147   3.731  0.2330 -0.0605  0.3122
  233POPC  H11R14142   2.954   2.133   3.708  0.6873  2.3046  0.7968
  233POPC  H11S14143   2.817   2.055   3.788 -1.1744 -1.0783 -1.8911
  233POPC  C21214144   2.847   2.262   3.823  0.4872 -0.0739 -0.4174
  233POPC  H12R14145   2.894   2.349   3.773  0.9510 -0.8154 -1.2968
  233POPC  H12S14146   2.910   2.230   3.909 -0.1213  1.4687  0.6489
  233POPC  C21314147   2.720   2.309   3.889  0.4938  0.8539  1.1870
  233POPC  H13R14148   2.690   2.210   3.931 -0.7009 -0.8963 -3.2067
  233POPC  H13S14149   2.644   2.341   3.814  0.2688  0.0400  1.0531
  233POPC  C21414150   2.735   2.420   3.993 -0.6877 -0.3501 -0.4823
  233POPC  H14R14151   2.632   2.460   4.000 -0.2980  0.7990 -1.1246
  233POPC  H14S14152   2.793   2.507   3.958 -1.2774 -0.3196 -1.4092
  233POPC  C21514153   2.791   2.365   4.123  0.0560  0.4502  0.2697
  233POPC  H15R14154   2.891   2.325   4.100 -0.8652 -1.4689 -0.6044
  233POPC  H15S14155   2.729   2.278   4.152  0.6776 -0.3669 -0.8099
  233POPC  C21614156   2.787   2.469   4.234 -0.3850 -0.1918  0.0945
  233POPC  H16R14157   2.684   2.507   4.255 -0.4717 -1.4818  2.3675
  233POPC  H16S14158   2.855   2.546   4.193 -0.5998 -1.2307 -2.4394
  233POPC  C21714159   2.852   2.423   4.358  0.1919  0.5719 -0.3210
  233POPC  H17R14160   2.958   2.397   4.341  0.5852  2.7101 -1.5015
  233POPC  H17S14161   2.802   2.327   4.384 -1.3503  0.7553 -2.3228
  233POPC  C21814162   2.845   2.525   4.476  0.8163 -0.2485  0.0998
  233POPC  H18R14163   2.866   2.472   4.572  0.8112 -0.6229 -0.1057
  233POPC  H18S14164   2.740   2.560   4.485  1.2789  1.2854 -0.0533
  233POPC  H18T14165   2.903   2.619   4.461 -0.4954  0.8847  1.7413
  233POPC   C3314166   3.905   3.021   3.580  0.3643  0.4994  0.1553
  233POPC   H3X14167   3.898   3.123   3.536 -2.2709  0.3221  0.0235
  233POPC   H3Y14168   4.006   2.975   3.583  1.5577  2.9444  2.8273
  233POPC   C3414169   3.869   3.020   3.728  0.6790 -0.3299 -0.2050
  233POPC   H4X14170   3.760   3.040   3.740  0.6914 -1.1064  1.3715
  233POPC   H4Y14171   3.921   3.101   3.784 -0.6917  0.2931  0.2146
  233POPC   C3514172   3.893   2.887   3.803 -0.2936 -0.2862 -0.2558
  233POPC   H5X14173   3.865   2.803   3.735  2.3490 -1.3160 -0.1714
  233POPC   H5Y14174   3.818   2.876   3.885 -1.1522  1.7665 -0.7060
  233POPC   C3614175   4.028   2.852   3.867  0.0384 -0.2584  0.3629
  233POPC   H6X14176   4.061   2.943   3.920 -1.4770  0.7351 -0.3297
  233POPC   H6Y14177   4.099   2.829   3.785 -1.3477 -2.3402 -0.3307
  233POPC   C3714178   4.030   2.724   3.959 -0.0699 -0.7629  0.2782
  233POPC   H7X14179   4.004   2.640   3.891 -0.3507 -0.7462  0.3655
  233POPC   H7Y14180   3.961   2.739   4.045 -2.5990  1.5802 -1.9800
  233POPC   C3814181   4.173   2.697   4.017  0.7385  0.0205  0.2799
  233POPC   H8X14182   4.191   2.780   4.088  1.9924 -0.5573  0.6541
  233POPC   H8Y14183   4.258   2.714   3.948 -0.8710  2.6891 -1.1956
  233POPC   C3914184   4.183   2.554   4.084  0.3541 -0.1757 -0.2497
  233POPC   H9X14185   4.096   2.552   4.154 -0.7312 -2.3078 -1.5794
  233POPC   H9Y14186   4.277   2.545   4.142  1.4903 -0.3794 -2.0710
  233POPC  C31014187   4.165   2.434   3.986 -0.0920 -0.5033  0.1411
  233POPC  H10X14188   4.254   2.430   3.919 -0.1131 -1.1156  0.1449
  233POPC  H10Y14189   4.070   2.449   3.931  0.5794  1.7605 -0.5451
  233POPC  C31114190   4.164   2.294   4.053 -0.4833  0.1730 -0.2603
  233POPC  H11X14191   4.175   2.218   3.973  2.2028 -0.2938  0.4307
  233POPC  H11Y14192   4.071   2.273   4.109 -0.8157 -0.2310 -0.9523
  233POPC  C31214193   4.286   2.272   4.148 -0.0788  0.4485  0.4970
  233POPC  H12X14194   4.271   2.329   4.242 -0.5656  1.1543 -0.0023
  233POPC  H12Y14195   4.382   2.312   4.110  0.1290 -0.0055  0.5397
  233POPC  C31314196   4.316   2.114   4.160  0.5069  0.4270  0.2169
  233POPC  H13X14197   4.351   2.074   4.062 -3.0558 -2.1839 -0.1787
  233POPC  H13Y14198   4.215   2.070   4.171  0.1723  1.0949 -0.1551
  233POPC  C31414199   4.402   2.078   4.287  0.3036  0.2513 -0.0950
  233POPC  H14X14200   4.328   2.091   4.369  0.1652  0.0709 -0.1885
  233POPC  H14Y14201   4.487   2.149   4.286  0.8611 -0.3964  0.2284
  233POPC  C31514202   4.456   1.942   4.295  0.0183  0.3376 -0.5284
  233POPC  H15X14203   4.533   1.921   4.218  1.0290  1.6197  0.0952
  233POPC  H15Y14204   4.367   1.875   4.294 -1.6959  2.4846  0.1838
  233POPC  C31614205   4.528   1.915   4.433  0.1874 -0.1117 -0.1184
  233POPC  H16X14206   4.619   1.977   4.449 -0.2770  0.9421 -1.4278
  233POPC  H16Y14207   4.561   1.809   4.426 -1.1772 -0.5427 -0.2580
  233POPC  H16Z14208   4.465   1.932   4.523  1.5083 -0.3068  0.8854
  234POPC     N14209   0.610   2.500   2.493 -0.8856  0.1645 -0.1276
  234POPC   C1214210   0.472   2.455   2.477  0.0058 -0.4218  0.1531
  234POPC  H12A14211   0.430   2.488   2.383 -2.2389  1.0611  1.5843
  234POPC  H12B14212   0.408   2.500   2.551  0.6550 -1.0370  1.1136
  234POPC   C1314213   0.658   2.498   2.633 -0.3752 -0.1038  0.1834
  234POPC  H13A14214   0.592   2.544   2.705  0.4932 -2.3405  2.5886
  234POPC  H13B14215   0.670   2.393   2.654  1.0222  0.0348  0.1418
  234POPC  H13C14216   0.757   2.541   2.641  0.0709 -1.0228 -0.2534
  234POPC   C1414217   0.720   2.427   2.419  0.6150  0.9946  0.4818
  234POPC  H14A14218   0.694   2.431   2.314 -3.6477  0.0848  1.3111
  234POPC  H14B14219   0.814   2.468   2.452  0.8736  1.2672 -0.5511
  234POPC  H14C14220   0.720   2.322   2.445  1.7747  0.5579 -1.1619
  234POPC   C1514221   0.615   2.636   2.444 -0.5950 -0.0321  0.3014
  234POPC  H15A14222   0.715   2.672   2.427 -0.9659 -0.1344 -2.5098
  234POPC  H15B14223   0.577   2.705   2.519  2.0368  1.0369  0.7678
  234POPC  H15C14224   0.559   2.657   2.355  2.5206  3.7990 -1.0463
  234POPC   C1114225   0.436   2.311   2.490 -0.3975  0.7260 -0.2222
  234POPC  H11A14226   0.480   2.271   2.583  1.5427  0.5320 -1.1700
  234POPC  H11B14227   0.496   2.262   2.410 -0.1030 -1.3948  1.2098
  234POPC     P14228   0.228   2.213   2.373 -0.4897 -0.0269  0.1389
  234POPC   O1314229   0.313   2.087   2.360 -0.6515 -0.3511  0.2503
  234POPC   O1414230   0.198   2.299   2.256 -0.6181 -0.1016  0.4020
  234POPC   O1214231   0.294   2.298   2.482  0.6507 -0.6170 -0.9788
  234POPC   O1114232   0.093   2.170   2.447 -0.3037  0.5318 -0.6184
  234POPC    C114233   0.026   2.261   2.534  0.1023  0.6307  0.1920
  234POPC    HA14234  -0.080   2.264   2.502  0.3092 -1.0074 -0.7384
  234POPC    HB14235   0.058   2.367   2.524 -0.5182  0.8477  0.4310
  234POPC    C214236   0.037   2.214   2.677  0.1889 -0.1938 -0.1722
  234POPC    HS14237   0.147   2.202   2.689  0.6221  1.2169 -2.2064
  234POPC   O2114238   6.428   2.087   2.692 -0.0465 -0.2999 -0.5640
  234POPC   C2114239   0.050   1.998   2.768  0.4748 -0.7620  0.4927
  234POPC   O2214240   0.166   2.012   2.808 -0.2571 -0.0557 -0.1869
  234POPC   C2214241   6.419   1.874   2.780  0.3744 -0.4447 -0.6519
  234POPC   H2R14242   6.415   1.821   2.682  1.4888  0.3405 -1.1315
  234POPC   H2S14243   6.314   1.892   2.814  0.7157  3.1914 -1.1077
  234POPC    C314244   6.435   2.314   2.782 -0.6840 -0.3005 -1.0990
  234POPC    HX14245   6.325   2.320   2.774 -0.9840 -0.7019  1.7685
  234POPC    HY14246   6.450   2.424   2.773 -0.3962 -0.1327  0.8835
  234POPC   O3114247   0.018   2.261   2.913 -0.8102  0.0541 -1.1189
  234POPC   C3114248   0.121   2.310   2.967 -0.4486 -0.0395 -0.5225
  234POPC   O3214249   0.202   2.386   2.913  0.4778 -0.2026 -0.6601
  234POPC   C3214250   0.148   2.238   3.097 -0.0695 -0.4826 -0.0651
  234POPC   H2X14251   0.226   2.160   3.091 -0.7378 -1.3333  1.5948
  234POPC   H2Y14252   0.059   2.185   3.138 -0.8888  0.1490 -0.9963
  234POPC   C2314253   0.033   1.757   2.866  0.0133 -0.1069 -0.6518
  234POPC   H3R14254   0.133   1.725   2.831  0.1916  1.4281 -1.6534
  234POPC   H3S14255  -0.028   1.665   2.874 -0.0708 -0.1301 -1.5242
  234POPC   C2414256   0.049   1.803   3.014  0.4124  0.2602  0.4756
  234POPC   H4R14257  -0.052   1.834   3.048  0.6803  0.9213  0.6738
  234POPC   H4S14258   0.122   1.886   3.013  0.0474  0.6617 -2.4140
  234POPC   C2514259   0.099   1.688   3.109 -0.0590 -0.4887  0.3174
  234POPC   H5R14260   0.208   1.670   3.111  0.0010 -0.0890  1.7185
  234POPC   H5S14261   0.054   1.591   3.077 -1.0859  0.2062 -0.4040
  234POPC   C2614262   0.065   1.704   3.260  0.5802  0.3198  0.9667
  234POPC   H6R14263   0.094   1.609   3.309  0.4322 -0.2963 -0.1113
  234POPC   H6S14264  -0.044   1.724   3.266  0.3127  0.4172 -2.3023
  234POPC   C2714265   0.129   1.822   3.329  0.4456  0.1733 -0.6788
  234POPC   H7R14266   0.093   1.826   3.434  0.2641 -1.2990 -0.6541
  234POPC   H7S14267   0.114   1.915   3.271 -1.0422 -0.3097 -1.1334
  234POPC   C2814268   0.288   1.813   3.337  0.2493 -0.5849  0.1462
  234POPC   H8R14269   0.336   1.804   3.237  1.6060 -2.1740  0.8876
  234POPC   H8S14270   0.302   1.716   3.389 -1.2281  0.6821  3.1859
  234POPC   C2914271   0.349   1.933   3.402 -0.0361  0.5424 -1.0706
  234POPC   H9114272   0.375   2.005   3.323  0.5836 -0.1958 -1.5525
  234POPC  C21014273   0.361   1.956   3.533 -0.4885  0.3119 -0.0437
  234POPC  H10114274   0.414   2.049   3.560 -1.6355  1.3800 -1.2899
  234POPC  C21114275   0.328   1.857   3.643  0.7255 -1.3157  0.3760
  234POPC  H11R14276   0.404   1.776   3.636  1.7685 -0.4175  0.9470
  234POPC  H11S14277   0.229   1.808   3.630  0.5036 -0.7913  0.0567
  234POPC  C21214278   0.329   1.934   3.776  0.4841 -0.7543  0.6198
  234POPC  H12R14279   0.249   2.012   3.785  1.9403  0.5614  3.3777
  234POPC  H12S14280   0.421   1.996   3.788 -0.6004  1.4679 -1.4178
  234POPC  C21314281   0.326   1.841   3.902 -0.5228 -0.1329  0.0247
  234POPC  H13R14282   0.431   1.806   3.912 -0.5682 -1.4911 -3.0177
  234POPC  H13S14283   0.249   1.761   3.892 -0.7747  0.2249 -1.0376
  234POPC  C21414284   0.289   1.934   4.018 -0.1383  0.0528 -0.3103
  234POPC  H14R14285   0.189   1.970   3.985  0.2833  0.7783 -0.8453
  234POPC  H14S14286   0.352   2.026   4.022 -0.3944  0.2012  0.4843
  234POPC  C21514287   0.283   1.855   4.157  0.6532  0.0422 -0.1793
  234POPC  H15R14288   0.256   1.748   4.143  0.2153 -0.1161  1.6723
  234POPC  H15S14289   0.193   1.883   4.217  0.1282 -0.9982 -0.4532
  234POPC  C21614290   0.401   1.870   4.246 -0.3961 -0.2382  0.5430
  234POPC  H16R14291   0.425   1.977   4.263 -0.1995  0.0567 -1.3691
  234POPC  H16S14292   0.488   1.832   4.189 -0.6980 -0.1162 -0.0062
  234POPC  C21714293   0.392   1.796   4.380 -0.1246 -0.2294  0.1547
  234POPC  H17R14294   0.490   1.814   4.431  0.0501 -0.6789 -0.0147
  234POPC  H17S14295   0.386   1.685   4.375  3.1445 -0.6490  2.4149
  234POPC  C21814296   0.285   1.842   4.480  0.1307 -0.1655 -0.6143
  234POPC  H18R14297   0.190   1.792   4.451  0.2615  0.2757 -1.8787
  234POPC  H18S14298   0.276   1.952   4.466 -0.5480 -0.3937 -2.1941
  234POPC  H18T14299   0.317   1.817   4.583 -0.8044  1.4050  0.0887
  234POPC   C3314300   0.211   2.326   3.211 -0.4871 -0.0808  0.0816
  234POPC   H3X14301   0.301   2.371   3.164  0.0735 -0.2608  0.9544
  234POPC   H3Y14302   0.251   2.262   3.292 -0.7750 -2.1183 -1.2886
  234POPC   C3414303   0.126   2.437   3.261 -0.6703 -0.0818  0.0175
  234POPC   H4X14304   0.081   2.501   3.181  0.4534 -1.3300 -1.6774
  234POPC   H4Y14305   0.177   2.510   3.328 -1.7077  1.6279 -0.9630
  234POPC   C3514306   6.461   2.370   3.351  0.3257  0.4191  0.4198
  234POPC   H5X14307   6.438   2.269   3.312  0.8246  0.6583 -0.4984
  234POPC   H5Y14308   6.371   2.427   3.320 -0.8669 -2.8710 -2.9011
  234POPC   C3614309   0.053   2.366   3.491  0.3660  0.7364 -0.3057
  234POPC   H6X14310   0.048   2.466   3.540  0.5442  0.1211  1.0182
  234POPC   H6Y14311   0.155   2.326   3.509  0.6426  2.3576  2.2644
  234POPC   C3714312   6.401   2.286   3.580 -0.1471  0.5054  0.7207
  234POPC   H7X14313   6.380   2.191   3.525 -4.8684  1.6381  0.1609
  234POPC   H7Y14314   6.300   2.332   3.586 -0.8354 -0.7676 -0.3913
  234POPC   C3814315   0.012   2.249   3.723  0.1896  0.5929  0.8086
  234POPC   H8X14316   0.010   2.353   3.761  0.4979  1.5524 -1.5947
  234POPC   H8Y14317   0.112   2.201   3.718 -0.8310 -1.5437 -0.5170
  234POPC   C3914318   6.348   2.160   3.792  0.2229  0.6035  0.1145
  234POPC   H9X14319   6.354   2.065   3.734 -0.0327  1.5917 -1.5957
  234POPC   H9Y14320   6.245   2.190   3.763  0.1615 -0.6991 -1.1435
  234POPC  C31014321   6.370   2.130   3.938 -0.4322 -0.0313  0.2396
  234POPC  H10X14322   6.408   2.224   3.983  0.9688 -0.1390 -0.6514
  234POPC  H10Y14323   6.446   2.054   3.961 -1.9052 -0.9353  2.4121
  234POPC  C31114324   6.238   2.109   4.013 -0.4113  0.4981 -0.4924
  234POPC  H11X14325   6.203   2.009   3.981  1.9388 -1.5924  2.8804
  234POPC  H11Y14326   6.162   2.188   3.993 -0.3304  0.3264 -1.5126
  234POPC  C31214327   6.257   2.110   4.173 -0.3336  0.0569  0.3251
  234POPC  H12X14328   6.154   2.121   4.211 -0.3085  0.2710  0.3328
  234POPC  H12Y14329   6.305   2.209   4.187 -1.2490  0.8515 -1.7792
  234POPC  C31314330   6.347   1.997   4.229 -0.6916 -0.1284 -0.2089
  234POPC  H13X14331   6.442   2.004   4.172 -0.7777 -2.4786 -0.7225
  234POPC  H13Y14332   6.308   1.895   4.208 -0.3173 -0.4117  0.4678
  234POPC  C31414333   6.367   2.017   4.375  0.5048 -0.2213 -0.2102
  234POPC  H14X14334   6.414   1.932   4.430 -1.3999 -0.8905  0.4680
  234POPC  H14Y14335   6.268   2.019   4.426  0.2605 -1.7093 -0.5757
  234POPC  C31514336   0.008   2.144   4.419 -0.1880 -0.1015 -0.2413
  234POPC  H15X14337  -0.042   2.234   4.378 -0.9137 -0.2055  0.4067
  234POPC  H15Y14338   0.114   2.138   4.386 -0.9170  0.0368 -2.8616
  234POPC  C31614339   0.010   2.137   4.573 -0.0965  0.1811  0.4559
  234POPC  H16X14340   0.091   2.073   4.613  0.4280  0.7702  0.3625
  234POPC  H16Y14341  -0.089   2.098   4.607 -0.5817 -0.2099 -1.2913
  234POPC  H16Z14342   0.042   2.231   4.623 -2.2480  0.7944  0.8180
  235POPC     N14343   2.154   5.447   3.098  0.1787  0.2369  0.2708
  235POPC   C1214344   2.026   5.363   3.076 -0.0846  0.3916  0.3041
  235POPC  H12A14345   2.061   5.263   3.100 -0.5189  0.1536 -0.0367
  235POPC  H12B14346   1.998   5.360   2.972  0.3346 -0.1085  0.1996
  235POPC   C1314347   2.115   5.596   3.064 -0.8138 -0.4463  0.4893
  235POPC  H13A14348   2.206   5.655   3.070  0.2261 -1.8210 -0.9200
  235POPC  H13B14349   2.061   5.601   2.971  0.3768 -0.7137 -0.2326
  235POPC  H13C14350   2.043   5.636   3.134 -3.0189  0.0381 -1.9001
  235POPC   C1414351   2.210   5.428   3.238  1.1854 -0.0392 -0.1746
  235POPC  H14A14352   2.305   5.479   3.248  2.2074 -1.4040 -2.2835
  235POPC  H14B14353   2.146   5.479   3.309 -0.5698  0.4266 -1.9789
  235POPC  H14C14354   2.219   5.323   3.261 -2.1354 -0.0194  1.9380
  235POPC   C1514355   2.251   5.394   2.998 -0.1409  0.2013  1.0102
  235POPC  H15A14356   2.270   5.288   3.004 -0.6562 -0.2399 -2.6236
  235POPC  H15B14357   2.348   5.440   3.008  0.4209 -0.9159  0.8159
  235POPC  H15C14358   2.208   5.395   2.898  0.6412 -1.2938  0.6243
  235POPC   C1114359   1.906   5.385   3.165  0.5254 -0.3737  0.1335
  235POPC  H11A14360   1.940   5.400   3.270 -0.0277  2.1134 -0.0049
  235POPC  H11B14361   1.837   5.298   3.157  2.3625 -2.0683  1.6389
  235POPC     P14362   1.738   5.504   3.006  0.3275 -0.2762  0.0288
  235POPC   O1314363   1.747   5.367   2.946  1.2347 -0.1423 -0.2768
  235POPC   O1414364   1.767   5.618   2.919 -0.4276 -0.5580  0.2461
  235POPC   O1214365   1.841   5.511   3.132  0.3707 -0.0380  0.3764
  235POPC   O1114366   1.600   5.527   3.081  0.8096 -1.0472 -0.1385
  235POPC    C114367   1.546   5.424   3.171 -0.0888  0.5215 -0.4292
  235POPC    HA14368   1.619   5.341   3.187  1.4633  2.2477  2.4433
  235POPC    HB14369   1.447   5.390   3.134 -0.1797  1.3103 -0.9295
  235POPC    C214370   1.512   5.476   3.315 -0.2369  0.1444 -0.3613
  235POPC    HS14371   1.449   5.396   3.361  0.1348  1.1219  1.9716
  235POPC   O2114372   1.446   5.606   3.309  0.2905  0.1571  0.4608
  235POPC   C2114373   1.329   5.614   3.268 -0.0554 -0.4150 -0.3108
  235POPC   O2214374   1.259   5.531   3.220  0.3310 -0.2625  0.4653
  235POPC   C2214375   1.270   5.750   3.308 -0.1716  0.8329 -0.0581
  235POPC   H2R14376   1.262   5.815   3.218 -0.0731 -0.5345 -1.0891
  235POPC   H2S14377   1.336   5.798   3.383 -1.0945  4.3605 -1.3021
  235POPC    C314378   1.637   5.499   3.401 -0.2200  1.4298  0.2098
  235POPC    HX14379   1.706   5.565   3.344  0.5789  0.7541  0.3750
  235POPC    HY14380   1.689   5.400   3.404 -2.1180  0.4300  2.0092
  235POPC   O3114381   1.609   5.550   3.530 -0.3087 -0.6520 -0.2473
  235POPC   C3114382   1.619   5.692   3.538 -0.4912  0.4498  0.0454
  235POPC   O3214383   1.644   5.762   3.443  0.0163  0.2233  0.2086
  235POPC   C3214384   1.587   5.728   3.684  0.1063  0.4669  0.1802
  235POPC   H2X14385   1.678   5.780   3.722  0.7890 -0.5293 -0.0444
  235POPC   H2Y14386   1.577   5.634   3.742  0.1764 -0.0415 -0.6190
  235POPC   C2314387   1.134   5.729   3.373 -1.0906 -0.2359  1.0428
  235POPC   H3R14388   1.135   5.648   3.449 -0.5593 -1.6925 -0.4401
  235POPC   H3S14389   1.066   5.701   3.289  0.6692  0.7033 -0.7977
  235POPC   C2414390   1.079   5.857   3.432  0.1505 -0.1835  0.1421
  235POPC   H4R14391   1.056   5.926   3.348 -0.9633  0.2835  0.8032
  235POPC   H4S14392   1.163   5.894   3.494  0.9718 -4.5058  1.9124
  235POPC   C2514393   0.967   5.824   3.522 -0.0471 -0.1619  0.4564
  235POPC   H5R14394   0.907   5.745   3.472 -0.2119 -0.8942  1.7443
  235POPC   H5S14395   0.895   5.908   3.524 -0.4596 -0.4823 -0.4630
  235POPC   C2614396   0.998   5.796   3.664 -0.0736 -0.1977  0.6549
  235POPC   H6R14397   1.044   5.886   3.711 -0.8637 -0.1060  1.2914
  235POPC   H6S14398   1.070   5.713   3.653 -1.7334 -1.8918  1.8580
  235POPC   C2714399   0.876   5.747   3.740 -0.2555 -0.0094  0.4776
  235POPC   H7R14400   0.819   5.672   3.682 -1.5354 -0.1589  1.8683
  235POPC   H7S14401   0.801   5.829   3.747  0.9883  1.0672  2.0707
  235POPC   C2814402   0.902   5.691   3.878 -0.8288 -0.2264 -0.3311
  235POPC   H8R14403   0.952   5.772   3.934  0.6441 -1.3246  0.0305
  235POPC   H8S14404   0.968   5.601   3.877  0.7524  0.8477  1.0500
  235POPC   C2914405   0.775   5.646   3.950 -0.4371 -0.8134  0.6727
  235POPC   H9114406   0.724   5.564   3.897  3.6042 -5.3930  3.0441
  235POPC  C21014407   0.732   5.687   4.074 -0.9155  0.6228  0.2673
  235POPC  H10114408   0.638   5.638   4.104 -0.0456 -2.5885 -1.7705
  235POPC  C21114409   0.790   5.792   4.166 -0.8846 -0.4830 -0.1223
  235POPC  H11R14410   0.723   5.881   4.165  1.8530  1.7674  0.6290
  235POPC  H11S14411   0.888   5.830   4.129 -2.0772  0.3383 -2.6298
  235POPC  C21214412   0.815   5.717   4.292  0.2913  0.0346  0.0380
  235POPC  H12R14413   0.868   5.786   4.362 -0.3357  0.6744 -0.1088
  235POPC  H12S14414   0.879   5.628   4.275  0.5759  0.2476 -0.0210
  235POPC  C21314415   0.693   5.674   4.366 -0.1405  0.3923 -0.2737
  235POPC  H13R14416   0.638   5.591   4.317  0.9022 -0.6594  0.2842
  235POPC  H13S14417   0.631   5.766   4.370 -0.9655 -0.1829  0.3048
  235POPC  C21414418   0.726   5.616   4.506 -0.1758 -0.6788 -0.0469
  235POPC  H14R14419   0.767   5.708   4.553 -1.7531 -0.3982  0.8478
  235POPC  H14S14420   0.808   5.545   4.482 -0.5347 -0.1950 -3.1912
  235POPC  C21514421   0.608   5.560   4.591 -0.0621  0.4997 -0.5332
  235POPC  H15R14422   0.563   5.469   4.546  0.8290 -1.1538  1.7282
  235POPC  H15S14423   0.537   5.644   4.604 -2.8720 -1.6279 -1.1199
  235POPC  C21614424   0.655   5.510   4.737 -0.2733  0.2154  0.4645
  235POPC  H16R14425   0.696   5.604   4.781  0.8849  0.8274 -1.8146
  235POPC  H16S14426   0.739   5.438   4.732  0.1364  0.7080  0.2670
  235POPC  C21714427   0.541   5.445   4.819 -0.3344 -0.0440 -0.0950
  235POPC  H17R14428   0.497   5.365   4.756  1.9457 -1.4370 -0.0201
  235POPC  H17S14429   0.467   5.524   4.847  0.4032  0.9301 -0.8381
  235POPC  C21814430   0.577   5.371   4.952 -0.3242  0.0276  0.1866
  235POPC  H18R14431   0.643   5.437   5.013 -1.2930  0.5724  0.6657
  235POPC  H18S14432   0.644   5.292   4.910  1.2646  0.2016  2.2301
  235POPC  H18T14433   0.486   5.331   5.001 -0.8512 -1.3629 -1.8026
  235POPC   C3314434   1.472   5.817   3.700 -0.2408 -1.2830  0.6177
  235POPC   H3X14435   1.466   5.902   3.629 -1.2447 -0.2899  1.8295
  235POPC   H3Y14436   1.465   5.868   3.799 -0.1236 -0.1392  0.0573
  235POPC   C3414437   1.337   5.744   3.704 -0.2696 -0.7276  0.0930
  235POPC   H4X14438   1.343   5.689   3.608  0.9377  1.9525 -1.5069
  235POPC   H4Y14439   1.260   5.823   3.693  0.3820  0.0108  0.6663
  235POPC   C3514440   1.310   5.664   3.836 -0.3375 -0.2605  0.1784
  235POPC   H5X14441   1.374   5.574   3.835  2.4969  1.6178  0.9908
  235POPC   H5Y14442   1.202   5.638   3.831 -0.2928 -0.5108  0.5118
  235POPC   C3614443   1.336   5.726   3.974  0.3326  0.7145 -0.9614
  235POPC   H6X14444   1.300   5.831   3.966  2.4556  1.6350  0.5186
  235POPC   H6Y14445   1.447   5.724   3.987  0.0366 -1.6622  2.7293
  235POPC   C3714446   1.261   5.658   4.093  0.0520 -0.5765 -0.2886
  235POPC   H7X14447   1.291   5.552   4.091 -1.0403 -0.8925 -1.4691
  235POPC   H7Y14448   1.152   5.666   4.070  0.0378  0.6157  0.0839
  235POPC   C3814449   1.286   5.724   4.230 -0.6160 -0.7332  0.0478
  235POPC   H8X14450   1.211   5.670   4.292  1.5344 -1.0259  2.5734
  235POPC   H8Y14451   1.261   5.832   4.221  0.7905 -0.3655  0.3200
  235POPC   C3914452   1.426   5.701   4.278  0.5838  0.0860  0.0344
  235POPC   H9X14453   1.502   5.745   4.210  2.4256 -1.9027  0.7005
  235POPC   H9Y14454   1.445   5.593   4.295 -0.7885 -0.0919  0.5894
  235POPC  C31014455   1.441   5.755   4.417  0.3118  0.2246 -0.6082
  235POPC  H10X14456   1.356   5.822   4.441  0.5020  0.5152 -0.7364
  235POPC  H10Y14457   1.530   5.823   4.415 -0.9345  1.9233 -0.5893
  235POPC  C31114458   1.466   5.646   4.520  0.2984  0.4765  0.0255
  235POPC  H11X14459   1.555   5.588   4.488  1.4425  0.5394  2.7539
  235POPC  H11Y14460   1.375   5.583   4.534 -0.2671  1.5196  1.2784
  235POPC  C31214461   1.503   5.703   4.661 -0.1280 -0.2438 -0.1985
  235POPC  H12X14462   1.596   5.763   4.652 -0.2280 -0.3081 -2.0188
  235POPC  H12Y14463   1.523   5.618   4.729  0.2436 -0.6287 -0.7820
  235POPC  C31314464   1.390   5.797   4.713 -0.4394 -0.3987  0.2860
  235POPC  H13X14465   1.288   5.756   4.693 -0.5338 -0.7877  1.4622
  235POPC  H13Y14466   1.389   5.893   4.656  2.5097 -0.2434  0.3618
  235POPC  C31414467   1.384   5.796   4.864  0.6251 -0.1890 -0.2852
  235POPC  H14X14468   1.475   5.849   4.898  0.1154 -0.2577  1.2984
  235POPC  H14Y14469   1.381   5.692   4.904 -0.9263 -1.3565 -3.1113
  235POPC  C31514470   1.271   5.873   4.923  0.4880 -0.2560 -0.3643
  235POPC  H15X14471   1.165   5.855   4.894 -0.1396 -0.5469  1.9191
  235POPC  H15Y14472   1.283   5.979   4.893 -1.6382 -0.3630 -1.8496
  235POPC  C31614473   1.277   5.864   5.070 -0.4102 -0.2079 -0.0350
  235POPC  H16X14474   1.284   5.758   5.102  1.0891 -0.5105 -1.2660
  235POPC  H16Y14475   1.194   5.909   5.129 -1.4177 -1.6804 -0.2749
  235POPC  H16Z14476   1.372   5.910   5.104 -0.6653  1.1840 -1.1014
  236POPC     N14477   4.890   2.871   2.389 -0.0354  0.5464  0.2417
  236POPC   C1214478   4.844   2.768   2.490  0.4499 -0.0444  0.5014
  236POPC  H12A14479   4.926   2.697   2.493 -1.2576 -2.4808 -2.9936
  236POPC  H12B14480   4.760   2.716   2.446  0.4506  0.8329 -0.5671
  236POPC   C1314481   4.914   2.818   2.248  0.2610  0.6006  0.1802
  236POPC  H13A14482   5.000   2.753   2.249  0.3881  0.7472  2.0843
  236POPC  H13B14483   4.829   2.765   2.209  1.0738 -1.9379  1.6767
  236POPC  H13C14484   4.928   2.897   2.175  1.3492 -0.7167 -1.1076
  236POPC   C1414485   4.785   2.979   2.385 -0.7142 -0.2399  0.4969
  236POPC  H14A14486   4.780   3.011   2.488 -1.0885 -0.8664  0.6786
  236POPC  H14B14487   4.813   3.064   2.326  1.2903 -1.1496  0.0385
  236POPC  H14C14488   4.690   2.942   2.349  0.1278 -1.1254 -0.9328
  236POPC   C1514489   5.015   2.943   2.436 -0.4403  0.3882  0.6107
  236POPC  H15A14490   5.091   2.876   2.477  1.9334  2.2052 -0.5691
  236POPC  H15B14491   4.985   3.013   2.513 -1.1493  1.1300 -0.3350
  236POPC  H15C14492   5.067   2.995   2.357  0.0012  1.5581  1.6359
  236POPC   C1114493   4.809   2.790   2.636 -0.5550 -0.1604  0.3072
  236POPC  H11A14494   4.901   2.833   2.680 -1.4998  2.5490 -0.1983
  236POPC  H11B14495   4.795   2.693   2.688 -2.2390 -1.6404 -2.6079
  236POPC     P14496   4.557   2.848   2.689 -0.0153 -0.1507 -0.2844
  236POPC   O1314497   4.529   2.719   2.620  0.6392 -0.1029 -0.6782
  236POPC   O1414498   4.459   2.961   2.666 -0.4161 -0.7012  0.9404
  236POPC   O1214499   4.713   2.888   2.668  0.2509  0.1970  0.3453
  236POPC   O1114500   4.564   2.828   2.847  0.9215 -0.1339 -0.1522
  236POPC    C114501   4.593   2.703   2.902 -0.1294  0.6044  0.4540
  236POPC    HA14502   4.691   2.666   2.864 -1.2544  0.6376 -2.8218
  236POPC    HB14503   4.526   2.624   2.863  1.1565  0.4338 -1.5929
  236POPC    C214504   4.602   2.706   3.056  0.1618  0.4162  0.1596
  236POPC    HS14505   4.654   2.612   3.085 -2.9261 -1.9363 -1.3481
  236POPC   O2114506   4.469   2.707   3.117  0.1737 -0.0034  0.5542
  236POPC   C2114507   4.397   2.593   3.119 -0.0195 -0.3170 -0.1203
  236POPC   O2214508   4.444   2.487   3.088  0.3866  0.6160 -0.0295
  236POPC   C2214509   4.264   2.628   3.183 -0.6955  0.1625  0.0324
  236POPC   H2R14510   4.183   2.576   3.127 -0.7539  0.8221 -0.5125
  236POPC   H2S14511   4.240   2.735   3.162 -1.2755  0.2764  1.2031
  236POPC    C314512   4.691   2.815   3.106 -0.3090 -0.2810  0.0060
  236POPC    HX14513   4.664   2.915   3.068 -0.2339 -1.2029 -2.6724
  236POPC    HY14514   4.790   2.798   3.057  0.9788  1.1098  1.9780
  236POPC   O3114515   4.718   2.800   3.248  1.0884  0.3200 -0.4486
  236POPC   C3114516   4.660   2.899   3.328  0.1914 -0.3840  0.7119
  236POPC   O3214517   4.593   2.996   3.288 -0.0353 -0.5829  0.8742
  236POPC   C3214518   4.695   2.869   3.475 -0.1481 -0.3461 -0.9165
  236POPC   H2X14519   4.603   2.843   3.532 -0.0339 -0.1728 -0.6527
  236POPC   H2Y14520   4.725   2.967   3.518 -2.4501  0.2121 -0.4239
  236POPC   C2314521   4.265   2.602   3.339  0.3063  0.0613  0.5427
  236POPC   H3R14522   4.341   2.669   3.386  0.2599  0.2217  0.3897
  236POPC   H3S14523   4.291   2.496   3.360  0.2088 -0.3214 -1.1116
  236POPC   C2414524   4.124   2.638   3.400 -0.6097 -0.3409  0.6217
  236POPC   H4R14525   4.052   2.580   3.338 -0.0579  0.7229 -1.0653
  236POPC   H4S14526   4.109   2.747   3.382 -1.7606 -0.3147  1.6208
  236POPC   C2514527   4.117   2.597   3.552 -0.1244  0.7127 -0.0474
  236POPC   H5R14528   4.018   2.617   3.598  0.2138  0.5479  0.7691
  236POPC   H5S14529   4.185   2.666   3.607  1.3267  0.0431 -0.9233
  236POPC   C2614530   4.158   2.457   3.591  0.0146  0.1302 -0.2463
  236POPC   H6R14531   4.168   2.437   3.700  0.2323  3.6899  0.4911
  236POPC   H6S14532   4.263   2.448   3.556 -0.3330  0.9892 -1.5656
  236POPC   C2714533   4.074   2.354   3.510  0.1693 -0.3361  0.0540
  236POPC   H7R14534   4.061   2.382   3.403 -0.1268  2.1706  0.6912
  236POPC   H7S14535   3.969   2.354   3.546 -0.3338 -0.3899 -1.3364
  236POPC   C2814536   4.125   2.216   3.543  0.2990 -0.1259 -0.9710
  236POPC   H8R14537   4.219   2.207   3.484 -0.6977  1.4003 -2.8890
  236POPC   H8S14538   4.056   2.145   3.492  0.6218 -0.0777 -1.4886
  236POPC   C2914539   4.135   2.170   3.689  0.4608  0.0451 -0.3003
  236POPC   H9114540   4.208   2.219   3.756  0.9060 -2.4496  1.1747
  236POPC  C21014541   4.043   2.087   3.748  0.6813  0.1055  0.0819
  236POPC  H10114542   4.068   2.053   3.849 -1.5273 -0.3695  0.5295
  236POPC  C21114543   3.906   2.051   3.701  0.4660 -0.1531  0.8300
  236POPC  H11R14544   3.904   1.974   3.620  0.1514 -0.9169  1.5533
  236POPC  H11S14545   3.856   2.139   3.656  1.3911  0.3172  0.6832
  236POPC  C21214546   3.820   1.998   3.815 -0.1642 -0.1452 -1.0212
  236POPC  H12R14547   3.875   1.909   3.849 -0.3186  0.0652 -0.2040
  236POPC  H12S14548   3.718   1.971   3.780 -0.8662  2.1461 -0.9451
  236POPC  C21314549   3.781   2.100   3.928 -0.6006 -0.1859  0.7083
  236POPC  H13R14550   3.875   2.114   3.986 -0.7593 -1.4299  1.3005
  236POPC  H13S14551   3.712   2.050   3.999  1.2497  0.4491  3.1077
  236POPC  C21414552   3.724   2.237   3.885 -0.0481  0.3825  0.4380
  236POPC  H14R14553   3.638   2.254   3.953 -2.1653 -4.0098 -0.7446
  236POPC  H14S14554   3.675   2.216   3.788  0.3815 -2.1253  0.6865
  236POPC  C21514555   3.827   2.354   3.885  0.0951 -0.3568  0.0606
  236POPC  H15R14556   3.901   2.337   3.804 -0.3834 -0.3572 -0.3905
  236POPC  H15S14557   3.880   2.355   3.982 -2.4292 -1.9039  1.5843
  236POPC  C21614558   3.751   2.485   3.874 -0.9123 -0.7594 -0.7854
  236POPC  H16R14559   3.820   2.572   3.869 -1.4624 -0.2751 -0.0584
  236POPC  H16S14560   3.683   2.493   3.961 -0.6249 -1.8646 -0.4531
  236POPC  C21714561   3.672   2.501   3.738  0.4117  0.5047  0.3316
  236POPC  H17R14562   3.593   2.423   3.737 -2.1088  2.8959  1.0718
  236POPC  H17S14563   3.749   2.499   3.657  1.5782 -0.6379  1.4146
  236POPC  C21814564   3.600   2.634   3.730  0.2456  0.9180  0.0083
  236POPC  H18R14565   3.672   2.719   3.736 -0.1828  1.5222 -2.2484
  236POPC  H18S14566   3.513   2.642   3.800  1.2334 -0.0483  1.3895
  236POPC  H18T14567   3.547   2.635   3.632 -0.5161 -0.0641  0.3967
  236POPC   C3314568   4.790   2.748   3.504 -0.2742 -0.3439  0.2037
  236POPC   H3X14569   4.880   2.788   3.455 -2.5790  0.5047 -3.7472
  236POPC   H3Y14570   4.758   2.656   3.450  0.4839 -0.0372 -0.7917
  236POPC   C3414571   4.823   2.731   3.655 -0.1395  0.1251  0.7281
  236POPC   H4X14572   4.735   2.719   3.722 -1.8028  1.0943 -1.1726
  236POPC   H4Y14573   4.870   2.826   3.690 -0.9975  0.7535  0.2131
  236POPC   C3514574   4.919   2.619   3.672 -0.1343  0.3709 -0.5809
  236POPC   H5X14575   4.969   2.604   3.574  0.2435 -1.0120 -0.2014
  236POPC   H5Y14576   4.859   2.525   3.680 -1.4662  1.3139  1.3555
  236POPC   C3614577   5.027   2.632   3.786 -0.0492  0.2332 -0.0412
  236POPC   H6X14578   5.092   2.721   3.773  3.4426 -2.3166 -1.4913
  236POPC   H6Y14579   5.095   2.546   3.769 -0.7490 -0.2215 -0.6204
  236POPC   C3714580   4.965   2.651   3.921 -0.1939  0.4509 -0.3218
  236POPC   H7X14581   4.902   2.559   3.925  2.1615 -1.5117 -3.5694
  236POPC   H7Y14582   4.895   2.737   3.931 -0.2185  0.2647  1.3495
  236POPC   C3814583   5.053   2.653   4.045 -0.4102 -0.1649  0.0922
  236POPC   H8X14584   5.114   2.560   4.054 -1.3692 -0.8322 -0.0752
  236POPC   H8Y14585   4.985   2.651   4.133  2.1079  1.0358  2.1933
  236POPC   C3914586   5.149   2.776   4.067 -0.5356 -0.1681 -0.0019
  236POPC   H9X14587   5.210   2.777   3.974 -0.4785 -1.4093  0.0168
  236POPC   H9Y14588   5.218   2.755   4.152  0.7027 -1.4505 -1.2720
  236POPC  C31014589   5.076   2.907   4.089  0.5503  0.4130 -0.5998
  236POPC  H10X14590   4.989   2.884   4.154  0.2824 -0.0382 -1.1076
  236POPC  H10Y14591   5.052   2.950   3.989 -0.0644  1.3265 -0.0785
  236POPC  C31114592   5.159   3.013   4.155 -0.3251 -0.1368  0.4634
  236POPC  H11X14593   5.238   3.044   4.083  0.7430 -0.8171  1.3229
  236POPC  H11Y14594   5.232   2.976   4.230 -0.1085  1.9777  1.3535
  236POPC  C31214595   5.083   3.140   4.210  0.0301 -0.1935  0.1338
  236POPC  H12X14596   4.987   3.155   4.156 -0.1106  1.5382  0.8096
  236POPC  H12Y14597   5.143   3.230   4.186 -0.5304 -0.2511 -1.6347
  236POPC  C31314598   5.029   3.116   4.354 -0.2747 -0.1796 -0.8167
  236POPC  H13X14599   5.116   3.102   4.423 -0.3264  2.1475 -0.1910
  236POPC  H13Y14600   4.958   3.032   4.370  0.2380 -0.3098  1.0560
  236POPC  C31414601   4.957   3.243   4.400 -0.2919  0.2255  0.1072
  236POPC  H14X14602   4.848   3.232   4.418 -0.0562 -0.0591  1.4180
  236POPC  H14Y14603   4.965   3.302   4.306 -0.0219 -0.1704 -0.1179
  236POPC  C31514604   5.009   3.314   4.523  0.2748 -0.6605  0.1085
  236POPC  H15X14605   5.108   3.361   4.502 -0.9159  1.8859 -0.1252
  236POPC  H15Y14606   5.028   3.230   4.593  0.7525 -0.9954 -0.4126
  236POPC  C31614607   4.911   3.411   4.584  0.3458  0.2889 -0.3650
  236POPC  H16X14608   4.967   3.480   4.651  2.7719 -0.7696 -1.1918
  236POPC  H16Y14609   4.826   3.376   4.646  0.1398  1.4959  0.0692
  236POPC  H16Z14610   4.865   3.480   4.510  1.3562  1.7203  0.2857
  237POPC     N14611   1.261   2.312   2.451  0.1579 -0.1435 -0.0501
  237POPC   C1214612   1.336   2.354   2.578 -0.0149  0.5802 -0.3146
  237POPC  H12A14613   1.308   2.292   2.662 -0.0155  1.6568  0.5106
  237POPC  H12B14614   1.293   2.450   2.602 -1.1695 -0.3003  1.3698
  237POPC   C1314615   1.316   2.375   2.325  0.5454 -0.0600  0.1204
  237POPC  H13A14616   1.421   2.353   2.311  0.4403 -0.7346  0.3393
  237POPC  H13B14617   1.260   2.338   2.241  0.4298  2.0591 -0.7868
  237POPC  H13C14618   1.305   2.482   2.329  1.1386 -0.0097  0.5182
  237POPC   C1414619   1.278   2.166   2.438  0.1532  0.3485  0.4432
  237POPC  H14A14620   1.223   2.135   2.350 -1.3867  0.9626  1.1638
  237POPC  H14B14621   1.385   2.158   2.426  0.6263 -0.2338  4.0188
  237POPC  H14C14622   1.238   2.122   2.528  0.3064  0.8834  0.7743
  237POPC   C1514623   1.117   2.347   2.447  0.2862  0.1784  0.0383
  237POPC  H15A14624   1.064   2.311   2.534  0.8339 -0.0347  0.2911
  237POPC  H15B14625   1.071   2.330   2.352  0.5791  0.3120 -0.1290
  237POPC  H15C14626   1.114   2.455   2.453  2.5024  0.2562  0.4597
  237POPC   C1114627   1.495   2.365   2.581 -0.2045 -0.1262 -0.1687
  237POPC  H11A14628   1.520   2.399   2.684  1.8674 -1.5233 -0.1440
  237POPC  H11B14629   1.526   2.443   2.508  0.2812 -1.5115 -1.4864
  237POPC     P14630   1.546   2.110   2.652 -0.3687 -0.1236 -0.2283
  237POPC   O1314631   1.572   1.991   2.569 -0.2451 -0.3415 -0.5258
  237POPC   O1414632   1.418   2.100   2.730  0.3338 -0.4565 -0.7148
  237POPC   O1214633   1.558   2.239   2.571 -0.3603 -0.6547 -0.2018
  237POPC   O1114634   1.664   2.131   2.751  0.0564  0.4293 -0.3299
  237POPC    C114635   1.643   2.189   2.879 -0.5353 -0.8096 -0.2755
  237POPC    HA14636   1.576   2.277   2.867  2.0654  1.0261 -2.7272
  237POPC    HB14637   1.735   2.235   2.921 -1.3431  1.6282 -0.9716
  237POPC    C214638   1.593   2.085   2.975  0.1518  0.2378 -0.0790
  237POPC    HS14639   1.531   2.019   2.912  1.4121 -0.5698 -0.5125
  237POPC   O2114640   1.517   2.152   3.070  0.9458  0.7480 -0.7114
  237POPC   C2114641   1.438   2.071   3.140 -0.5036  0.4653  0.4680
  237POPC   O2214642   1.414   1.954   3.115  0.0722  0.2009 -0.2698
  237POPC   C2214643   1.377   2.154   3.253 -0.5331 -0.1565  0.7990
  237POPC   H2R14644   1.278   2.197   3.225  0.8446  1.5533 -1.8705
  237POPC   H2S14645   1.440   2.243   3.271 -0.3204 -0.2934  0.7337
  237POPC    C314646   1.702   2.000   3.036 -0.2792  1.1414 -0.0031
  237POPC    HX14647   1.754   1.940   2.959 -1.0559  0.6772 -0.1747
  237POPC    HY14648   1.653   1.922   3.098  3.1483 -1.9737 -0.9003
  237POPC   O3114649   1.805   2.070   3.111 -0.2828 -0.0596 -0.6659
  237POPC   C3114650   1.875   1.996   3.199  0.0145 -0.3615 -0.4863
  237POPC   O3214651   1.856   1.879   3.223 -0.0400  0.2051  0.1067
  237POPC   C3214652   1.983   2.083   3.266 -0.1073  0.2053  0.2440
  237POPC   H2X14653   1.946   2.188   3.263 -1.4497 -0.2533 -0.1337
  237POPC   H2Y14654   2.076   2.090   3.206  1.8793  0.0316  3.1342
  237POPC   C2314655   1.363   2.060   3.371 -0.0112  0.2621 -0.7623
  237POPC   H3R14656   1.280   1.987   3.366  0.0249 -0.2309  3.0081
  237POPC   H3S14657   1.315   2.120   3.451  0.6692 -1.7021  1.2151
  237POPC   C2414658   1.493   1.993   3.430 -0.1010 -0.3668 -0.1619
  237POPC   H4R14659   1.540   1.936   3.347  0.3649 -0.5293  0.2067
  237POPC   H4S14660   1.464   1.914   3.502  1.9864 -0.0356  1.1482
  237POPC   C2514661   1.593   2.100   3.471  0.2063 -0.5408 -0.0484
  237POPC   H5R14662   1.550   2.203   3.472 -2.3479 -1.5552  1.0946
  237POPC   H5S14663   1.671   2.100   3.392  0.0449 -2.2178 -0.2372
  237POPC   C2614664   1.660   2.073   3.605  0.5887 -0.4214 -0.3633
  237POPC   H6R14665   1.763   2.111   3.620 -0.1382  0.5427  3.0059
  237POPC   H6S14666   1.663   1.963   3.621  1.1826 -0.3723 -0.1099
  237POPC   C2714667   1.577   2.139   3.720  0.3976  0.3926 -0.0008
  237POPC   H7R14668   1.559   2.246   3.697  2.4334 -0.0103 -4.4241
  237POPC   H7S14669   1.646   2.153   3.806 -0.2866  3.1386  0.2079
  237POPC   C2814670   1.462   2.050   3.780 -0.0674 -1.3821  0.2273
  237POPC   H8R14671   1.489   1.946   3.809 -1.8633 -1.9512 -0.0106
  237POPC   H8S14672   1.399   2.022   3.693  0.5717 -0.9581 -0.3876
  237POPC   C2914673   1.376   2.116   3.892  0.5046 -0.3914  0.4365
  237POPC   H9114674   1.315   2.200   3.856 -0.2768 -1.1496 -0.0653
  237POPC  C21014675   1.383   2.104   4.024  0.0704  1.0243  0.1369
  237POPC  H10114676   1.319   2.172   4.082  0.6606  0.9723  0.8757
  237POPC  C21114677   1.490   2.026   4.101 -0.0757 -0.5483  0.7904
  237POPC  H11R14678   1.549   2.093   4.167  1.1780 -1.2794  0.4616
  237POPC  H11S14679   1.565   1.985   4.030 -1.7827  0.4709 -1.7387
  237POPC  C21214680   1.438   1.922   4.193  0.5032  0.5925 -0.1607
  237POPC  H12R14681   1.517   1.867   4.248 -0.4029  0.6963  1.2880
  237POPC  H12S14682   1.385   1.848   4.129 -2.3013  1.2318  1.2584
  237POPC  C21314683   1.337   1.964   4.297  0.6753 -0.0288 -1.2727
  237POPC  H13R14684   1.237   1.989   4.255 -1.4825 -3.4487  1.2840
  237POPC  H13S14685   1.376   2.052   4.352  0.5255 -0.3084 -0.7160
  237POPC  C21414686   1.296   1.852   4.394 -0.1084  0.3751  0.0203
  237POPC  H14R14687   1.387   1.801   4.431 -0.2730 -0.3825 -0.5937
  237POPC  H14S14688   1.243   1.778   4.329 -0.8618  1.8972 -1.1688
  237POPC  C21514689   1.202   1.888   4.512 -0.3471  0.3584  0.1309
  237POPC  H15R14690   1.126   1.946   4.453  1.0220 -1.4595 -3.7730
  237POPC  H15S14691   1.257   1.958   4.578  1.7629  0.4925 -1.6691
  237POPC  C21614692   1.142   1.767   4.588 -0.0322 -0.3268  0.0718
  237POPC  H16R14693   1.214   1.699   4.641  2.6250  1.6665 -0.7774
  237POPC  H16S14694   1.089   1.706   4.512 -1.6023 -2.0092  2.3788
  237POPC  C21714695   1.047   1.800   4.703 -0.5770  0.7552  0.5614
  237POPC  H17R14696   1.095   1.853   4.788  1.0293  0.1076  0.0836
  237POPC  H17S14697   1.018   1.700   4.742  0.0433 -0.3271 -1.6187
  237POPC  C21814698   0.923   1.882   4.652  0.2250 -0.5201  1.3607
  237POPC  H18R14699   0.896   1.837   4.554 -0.5668 -1.7082  2.1003
  237POPC  H18S14700   0.962   1.985   4.638  1.7511 -0.5854  4.2892
  237POPC  H18T14701   0.838   1.870   4.722 -1.4348 -1.2769 -0.7075
  237POPC   C3314702   2.003   2.054   3.412 -0.4934 -0.0374 -0.6613
  237POPC   H3X14703   2.060   1.960   3.427 -0.7073 -0.5214 -2.6875
  237POPC   H3Y14704   1.904   2.039   3.460  0.8727  0.2021  2.5030
  237POPC   C3414705   2.061   2.171   3.492 -0.1840 -0.4351  0.2392
  237POPC   H4X14706   2.059   2.145   3.599 -1.0551  0.2349  0.3933
  237POPC   H4Y14707   2.001   2.263   3.476  0.7669  0.0430 -0.7912
  237POPC   C3514708   2.218   2.188   3.465  0.1159  0.2915  0.2516
  237POPC   H5X14709   2.215   2.244   3.370 -0.6364  0.1465  0.1759
  237POPC   H5Y14710   2.270   2.089   3.462 -0.9420 -0.2799 -2.6360
  237POPC   C3614711   2.289   2.285   3.568 -0.3170  1.0508  0.7705
  237POPC   H6X14712   2.231   2.380   3.577  0.1531  1.3022  1.1872
  237POPC   H6Y14713   2.376   2.314   3.504 -1.8891  0.0520 -1.9769
  237POPC   C3714714   2.330   2.233   3.704 -0.5251 -0.3751  0.7578
  237POPC   H7X14715   2.421   2.175   3.679 -0.3764  0.5061 -0.8578
  237POPC   H7Y14716   2.254   2.162   3.742 -2.1520  2.3963  3.1347
  237POPC   C3814717   2.353   2.346   3.809 -0.2122  0.8472 -0.4925
  237POPC   H8X14718   2.456   2.384   3.795 -0.3831  1.5440  0.0871
  237POPC   H8Y14719   2.345   2.301   3.911 -1.9804  1.4089 -0.3535
  237POPC   C3914720   2.257   2.458   3.811  0.0997 -0.1870  0.1057
  237POPC   H9X14721   2.157   2.418   3.784 -0.3882  0.0568  1.4428
  237POPC   H9Y14722   2.279   2.540   3.739 -0.7617 -1.3400 -1.5333
  237POPC  C31014723   2.241   2.517   3.950  0.1782 -1.1111  0.3444
  237POPC  H10X14724   2.337   2.560   3.985  0.2933  0.8579 -2.1057
  237POPC  H10Y14725   2.222   2.428   4.014  1.3935 -2.0592 -0.5734
  237POPC  C31114726   2.125   2.622   3.960  0.3838 -0.4174  0.0376
  237POPC  H11X14727   2.070   2.597   4.054 -0.1005 -3.1746 -0.8878
  237POPC  H11Y14728   2.042   2.603   3.888  0.4338  1.0826 -0.4564
  237POPC  C31214729   2.154   2.770   3.961  0.6271  0.1583 -0.0823
  237POPC  H12X14730   2.144   2.803   3.855 -0.4873 -0.6876 -0.2535
  237POPC  H12Y14731   2.259   2.791   3.993  1.3373  0.8807 -2.6598
  237POPC  C31314732   2.065   2.857   4.053  0.2025  0.3398  0.2306
  237POPC  H13X14733   1.960   2.821   4.066  0.6685 -1.1137  0.1048
  237POPC  H13Y14734   2.049   2.955   4.004 -3.5984 -1.1264 -1.9081
  237POPC  C31414735   2.127   2.884   4.194 -0.7786  0.6357  0.0209
  237POPC  H14X14736   2.236   2.904   4.193 -0.7711  0.7628  1.2706
  237POPC  H14Y14737   2.117   2.793   4.257  2.6527 -1.0043 -1.5526
  237POPC  C31514738   2.062   2.999   4.264 -0.3514  0.3066 -0.0667
  237POPC  H15X14739   1.956   2.967   4.268 -0.3207  0.3124  1.1125
  237POPC  H15Y14740   2.068   3.086   4.194  0.4597 -0.0695 -0.4801
  237POPC  C31614741   2.116   3.036   4.405  0.4944  0.3339  0.4424
  237POPC  H16X14742   2.110   2.945   4.469  2.4092 -1.5343 -1.8107
  237POPC  H16Y14743   2.053   3.115   4.451 -0.3717 -0.2737  0.3135
  237POPC  H16Z14744   2.218   3.079   4.409  0.7242 -0.1975  0.3392
  238POPC     N14745   5.518   2.728   2.170 -0.2131 -0.0096  0.1504
  238POPC   C1214746   5.542   2.725   2.316 -0.2139  0.5971 -0.1833
  238POPC  H12A14747   5.523   2.825   2.354  0.4122  1.2815 -1.5856
  238POPC  H12B14748   5.644   2.705   2.343 -0.4510  0.4429  0.6021
  238POPC   C1314749   5.617   2.836   2.113 -1.0659 -0.3282 -0.1028
  238POPC  H13A14750   5.710   2.819   2.164 -0.4117 -2.3144 -1.8119
  238POPC  H13B14751   5.624   2.823   2.006  1.7647 -0.8909  0.0891
  238POPC  H13C14752   5.570   2.930   2.137  1.8555  0.7443  2.0298
  238POPC   C1414753   5.547   2.600   2.110 -0.1165  0.2895  1.0818
  238POPC  H14A14754   5.649   2.568   2.124  0.1392  0.6163  0.0875
  238POPC  H14B14755   5.488   2.519   2.149 -1.5409  1.1255  0.7342
  238POPC  H14C14756   5.533   2.605   2.003  3.3816  1.2295  0.5471
  238POPC   C1514757   5.387   2.782   2.133 -0.1780  0.2999  0.2852
  238POPC  H15A14758   5.398   2.814   2.030  2.2051 -1.2665 -0.0317
  238POPC  H15B14759   5.358   2.868   2.191  1.0181  1.3588 -0.6212
  238POPC  H15C14760   5.301   2.718   2.137 -2.3412  2.7428 -2.6318
  238POPC   C1114761   5.455   2.630   2.404 -0.4596  0.2740  0.1787
  238POPC  H11A14762   5.492   2.657   2.506 -0.3906  1.0278 -0.0376
  238POPC  H11B14763   5.469   2.521   2.386 -2.0436 -0.1156  1.0665
  238POPC     P14764   5.225   2.638   2.523  0.0668  0.2320 -0.0263
  238POPC   O1314765   5.107   2.572   2.463  0.6656 -0.2853  0.2553
  238POPC   O1414766   5.203   2.756   2.618 -0.1738  0.2695  0.6740
  238POPC   O1214767   5.320   2.674   2.406  0.1543  0.0806 -0.3079
  238POPC   O1114768   5.309   2.530   2.607 -0.0459  1.1802  0.7815
  238POPC    C114769   5.253   2.399   2.624  0.5634  0.0027  0.1645
  238POPC    HA14770   5.326   2.330   2.673 -0.4969  0.1718  2.1069
  238POPC    HB14771   5.217   2.361   2.526  1.7936 -1.0960  0.1089
  238POPC    C214772   5.140   2.397   2.730  0.5035  0.2193  0.6379
  238POPC    HS14773   5.073   2.474   2.687  1.4141  1.5399  1.5157
  238POPC   O2114774   5.200   2.428   2.859 -0.1015  0.5751 -0.3175
  238POPC   C2114775   5.114   2.492   2.943 -0.2518 -0.1287  0.0168
  238POPC   O2214776   5.005   2.535   2.909  0.0602  0.4988  0.2602
  238POPC   C2214777   5.186   2.513   3.075  0.5384 -0.1266 -0.1155
  238POPC   H2R14778   5.277   2.573   3.053 -0.3130  1.4344  0.5446
  238POPC   H2S14779   5.198   2.413   3.122 -1.6565  0.0149  0.8487
  238POPC    C314780   5.063   2.258   2.737  0.2796  0.1268  0.3569
  238POPC    HX14781   5.139   2.189   2.781  1.1726  1.0863  0.3525
  238POPC    HY14782   5.040   2.233   2.631 -0.5329  1.2659  0.2573
  238POPC   O3114783   4.946   2.251   2.815  0.2517 -0.4888  0.2517
  238POPC   C3114784   4.834   2.321   2.783 -0.2010  0.2932 -0.7064
  238POPC   O3214785   4.821   2.375   2.673  0.5951  0.1879  0.0931
  238POPC   C3214786   4.740   2.317   2.899  0.3709 -0.5015 -0.5426
  238POPC   H2X14787   4.660   2.250   2.863  1.7776 -1.2971 -2.3701
  238POPC   H2Y14788   4.712   2.425   2.904 -1.0368 -0.5656 -3.9655
  238POPC   C2314789   5.095   2.593   3.172  0.0911  0.2378  0.4879
  238POPC   H3R14790   5.025   2.524   3.225 -0.2816  0.8023  0.7510
  238POPC   H3S14791   5.039   2.673   3.118  2.6432  2.1234  0.4608
  238POPC   C2414792   5.169   2.673   3.276  0.4654  0.2470 -0.9694
  238POPC   H4R14793   5.094   2.744   3.316 -0.2917 -0.4701 -1.0802
  238POPC   H4S14794   5.261   2.732   3.257  1.4089  0.7700  3.8076
  238POPC   C2514795   5.202   2.581   3.395 -0.1156  0.6165  0.0797
  238POPC   H5R14796   5.274   2.499   3.371 -1.7704 -0.6448 -0.8091
  238POPC   H5S14797   5.115   2.525   3.434  0.0721 -0.1540 -0.5710
  238POPC   C2614798   5.262   2.676   3.502 -0.1587 -0.2237  0.1941
  238POPC   H6R14799   5.172   2.720   3.551 -0.8927  0.8135 -1.9441
  238POPC   H6S14800   5.333   2.750   3.460  1.0553 -0.6524  1.4154
  238POPC   C2714801   5.331   2.595   3.612 -0.3343  0.4893  0.3776
  238POPC   H7R14802   5.411   2.532   3.567 -1.6847 -0.5427 -0.6520
  238POPC   H7S14803   5.258   2.520   3.649  1.0895 -0.9335  0.4202
  238POPC   C2814804   5.386   2.672   3.724  0.1048 -0.6355 -0.3535
  238POPC   H8R14805   5.308   2.745   3.756  1.6855  1.1214 -0.3908
  238POPC   H8S14806   5.471   2.730   3.683 -0.8639 -0.1766 -1.7943
  238POPC   C2914807   5.431   2.591   3.842  0.6798  0.1436  0.2012
  238POPC   H9114808   5.379   2.495   3.857  0.3275  0.1011 -1.1719
  238POPC  C21014809   5.507   2.638   3.940  0.0846 -0.7158 -0.5675
  238POPC  H10114810   5.535   2.564   4.016 -0.4379  0.3199  0.6694
  238POPC  C21114811   5.587   2.771   3.929  0.0289  0.0660  0.4701
  238POPC  H11R14812   5.555   2.836   3.845  3.4373 -0.9567 -1.8421
  238POPC  H11S14813   5.695   2.753   3.909 -0.0060 -1.9228  1.8317
  238POPC  C21214814   5.563   2.853   4.056 -0.0893  0.1367  0.5573
  238POPC  H12R14815   5.455   2.878   4.044 -0.0510 -0.9662 -3.8694
  238POPC  H12S14816   5.623   2.946   4.050  1.8571 -1.0230  1.0304
  238POPC  C21314817   5.609   2.780   4.190  0.7743  0.2024 -0.2530
  238POPC  H13R14818   5.695   2.838   4.229 -0.0685 -0.5678  3.0396
  238POPC  H13S14819   5.658   2.681   4.180 -0.3929 -0.3552 -0.6545
  238POPC  C21414820   5.504   2.790   4.300 -0.4142 -0.0644  0.4396
  238POPC  H14R14821   5.413   2.725   4.295 -2.0102  1.8948  2.1197
  238POPC  H14S14822   5.474   2.897   4.293 -2.4180 -0.5570  0.7102
  238POPC  C21514823   5.573   2.766   4.437 -0.4490  0.4739 -0.0975
  238POPC  H15R14824   5.670   2.820   4.439  0.4291 -1.0368  0.0892
  238POPC  H15S14825   5.592   2.657   4.445 -0.9282  0.4423  0.6105
  238POPC  C21614826   5.502   2.798   4.568  0.0874 -0.3256 -0.8919
  238POPC  H16R14827   5.396   2.772   4.550 -0.6688  2.0246 -0.2931
  238POPC  H16S14828   5.506   2.902   4.607  0.5891 -0.7658  0.2646
  238POPC  C21714829   5.541   2.702   4.682 -0.5704 -0.2409 -0.4502
  238POPC  H17R14830   5.497   2.601   4.664  2.6551 -1.5784 -1.5470
  238POPC  H17S14831   5.481   2.738   4.768 -0.1480 -1.6926  0.4898
  238POPC  C21814832   5.690   2.695   4.709  0.8239  0.0048  0.3343
  238POPC  H18R14833   5.749   2.660   4.622 -1.8036 -0.0279 -1.5671
  238POPC  H18S14834   5.706   2.634   4.801  1.5477 -0.4409 -0.0767
  238POPC  H18T14835   5.740   2.794   4.718 -1.3733  1.2170 -0.1621
  238POPC   C3314836   4.802   2.272   3.034 -0.2931 -0.0582 -0.1490
  238POPC   H3X14837   4.890   2.332   3.065 -0.7060  0.6529 -0.3234
  238POPC   H3Y14838   4.825   2.163   3.030  0.9036  0.1746  0.0944
  238POPC   C3414839   4.700   2.296   3.145  0.6064 -0.5286  0.4633
  238POPC   H4X14840   4.599   2.251   3.135  0.8509 -0.8907 -0.5244
  238POPC   H4Y14841   4.672   2.403   3.142 -1.0059 -0.8949  1.3627
  238POPC   C3514842   4.752   2.289   3.290 -0.0013  0.4314  0.0973
  238POPC   H5X14843   4.835   2.361   3.281 -0.6056  1.2182  0.6767
  238POPC   H5Y14844   4.793   2.188   3.312 -1.5954  0.0365  1.4463
  238POPC   C3614845   4.651   2.339   3.394  0.4831  0.2701  0.6946
  238POPC   H6X14846   4.575   2.401   3.341 -0.6244  0.1119  2.0517
  238POPC   H6Y14847   4.707   2.411   3.458  0.9519  1.2676 -0.7792
  238POPC   C3714848   4.575   2.240   3.489  0.3754 -0.5364  0.8436
  238POPC   H7X14849   4.660   2.176   3.520  1.1537  0.4580  0.8340
  238POPC   H7Y14850   4.498   2.190   3.427  0.1979  0.1760  0.4745
  238POPC   C3814851   4.510   2.309   3.615 -0.6353 -0.3400 -0.1035
  238POPC   H8X14852   4.443   2.230   3.654 -1.1554 -0.2830 -0.8642
  238POPC   H8Y14853   4.446   2.394   3.583 -1.5103 -1.0954 -0.3734
  238POPC   C3914854   4.608   2.344   3.723  0.5064 -0.2069  0.0013
  238POPC   H9X14855   4.680   2.420   3.687  0.1407 -0.5558 -1.5533
  238POPC   H9Y14856   4.647   2.246   3.756 -2.2561 -1.5017 -0.2531
  238POPC  C31014857   4.538   2.403   3.844 -0.2197 -0.0018 -0.0320
  238POPC  H10X14858   4.446   2.354   3.881  2.0046 -3.7873  1.0182
  238POPC  H10Y14859   4.506   2.505   3.813 -1.5055  0.0450  1.3102
  238POPC  C31114860   4.636   2.434   3.963 -0.1888 -0.5731  0.3281
  238POPC  H11X14861   4.572   2.501   4.024  1.7274 -0.2596  2.1567
  238POPC  H11Y14862   4.725   2.493   3.934 -0.1295 -0.5823  0.4846
  238POPC  C31214863   4.683   2.312   4.049 -0.3250 -0.7139 -0.6718
  238POPC  H12X14864   4.750   2.246   3.989  2.4872 -0.2129  1.7218
  238POPC  H12Y14865   4.593   2.265   4.093 -0.1993  0.3609  0.8084
  238POPC  C31314866   4.769   2.360   4.167  0.1225 -0.7199  0.0137
  238POPC  H13X14867   4.708   2.376   4.258 -0.5199  2.1702 -0.8102
  238POPC  H13Y14868   4.813   2.461   4.148  2.2192 -1.4241  0.7818
  238POPC  C31414869   4.885   2.264   4.197  0.1415  0.4781 -0.5272
  238POPC  H14X14870   4.927   2.289   4.296 -1.3515  1.0378 -0.0070
  238POPC  H14Y14871   4.958   2.286   4.116 -0.4687  1.4063 -0.8436
  238POPC  C31514872   4.851   2.114   4.193  0.0405 -0.4043 -0.0524
  238POPC  H15X14873   4.835   2.084   4.087 -0.0128 -1.6524  0.2939
  238POPC  H15Y14874   4.756   2.082   4.242  0.1501 -0.0985  0.3626
  238POPC  C31614875   4.957   2.026   4.245 -0.0217 -0.1847 -0.1917
  238POPC  H16X14876   4.921   1.924   4.271 -1.2994 -0.1601 -1.7158
  238POPC  H16Y14877   4.997   2.061   4.342  1.1058  0.6155 -0.9202
  238POPC  H16Z14878   5.039   2.005   4.173 -0.6848 -2.1856 -0.4401
  239POPC     N14879   4.178   1.961   2.402  0.6884  0.4202 -0.5584
  239POPC   C1214880   4.053   1.948   2.488  0.1732 -0.4148  0.5235
  239POPC  H12A14881   3.991   1.870   2.445  1.2829  0.0283 -2.0653
  239POPC  H12B14882   3.995   2.039   2.495 -1.1265 -1.2409  0.8901
  239POPC   C1314883   4.274   2.063   2.457  0.3837  0.6438  0.4067
  239POPC  H13A14884   4.372   2.073   2.412  1.0003  0.9646  1.7606
  239POPC  H13B14885   4.230   2.162   2.458  2.7375  1.8450  3.6948
  239POPC  H13C14886   4.293   2.038   2.560  0.9234  2.1771  0.7073
  239POPC   C1414887   4.235   1.816   2.400  0.1731 -0.4160  0.1520
  239POPC  H14A14888   4.157   1.742   2.392 -0.2642  0.0341  0.1341
  239POPC  H14B14889   4.310   1.802   2.324  0.8425 -2.9009  1.1851
  239POPC  H14C14890   4.284   1.791   2.493  0.5253 -0.7366 -0.1199
  239POPC   C1514891   4.143   1.988   2.257  0.3334 -0.3618 -0.0615
  239POPC  H15A14892   4.073   1.919   2.212 -2.0778  0.2528  2.5124
  239POPC  H15B14893   4.238   1.990   2.204  0.2340 -2.3303 -0.3901
  239POPC  H15C14894   4.102   2.085   2.230 -0.2650 -0.9021 -1.1759
  239POPC   C1114895   4.072   1.907   2.641  0.5770  0.5749  0.1099
  239POPC  H11A14896   4.144   1.823   2.638  1.4453  1.1020 -5.4931
  239POPC  H11B14897   3.975   1.868   2.678 -0.3127 -0.4220 -2.9711
  239POPC     P14898   4.030   2.140   2.743 -0.0968 -0.0210 -0.0359
  239POPC   O1314899   3.927   2.156   2.636 -0.0830  0.2744 -0.8947
  239POPC   O1414900   4.114   2.257   2.779 -0.6963  0.4467 -0.5708
  239POPC   O1214901   4.122   2.012   2.714  0.1850 -0.9269 -0.1159
  239POPC   O1114902   3.947   2.102   2.879  0.6830 -0.1946 -0.3256
  239POPC    C114903   4.019   2.025   2.978  0.2242 -0.1231 -0.3840
  239POPC    HA14904   4.064   1.931   2.940 -0.2163 -0.7643  0.6327
  239POPC    HB14905   3.954   1.970   3.050  1.7983 -0.2658  0.9899
  239POPC    C214906   4.128   2.102   3.053  0.0772  0.5766  0.2898
  239POPC    HS14907   4.208   2.115   2.978 -0.1022 -0.3690 -0.0769
  239POPC   O2114908   4.177   2.012   3.159  0.1174 -0.1469 -0.6572
  239POPC   C2114909   4.267   1.917   3.129 -0.9438  0.0191  0.0085
  239POPC   O2214910   4.329   1.919   3.023 -0.1584  0.8137 -0.3360
  239POPC   C2214911   4.287   1.824   3.243  0.5328 -0.4766  0.1689
  239POPC   H2R14912   4.188   1.816   3.294 -0.2896  2.2788 -0.8322
  239POPC   H2S14913   4.363   1.872   3.308 -1.6196  1.9938  1.0358
  239POPC    C314914   4.086   2.238   3.099  0.4272 -0.3414 -0.3651
  239POPC    HX14915   4.075   2.299   3.007  4.1233  0.7778 -0.2204
  239POPC    HY14916   4.164   2.283   3.164 -1.3621  2.4749 -0.0024
  239POPC   O3114917   3.969   2.233   3.190  0.0329  0.8658  0.5961
  239POPC   C3114918   3.877   2.314   3.158 -0.0270 -0.9596  0.0501
  239POPC   O3214919   3.882   2.402   3.074 -0.9210  0.6994  0.1664
  239POPC   C3214920   3.761   2.306   3.257  0.5528  0.7083  0.0135
  239POPC   H2X14921   3.673   2.316   3.190  0.2289  1.3520  0.5248
  239POPC   H2Y14922   3.763   2.401   3.314 -1.8162 -0.3063  1.9827
  239POPC   C2314923   4.327   1.682   3.197 -0.2409 -0.1283  0.6514
  239POPC   H3R14924   4.430   1.703   3.162 -0.5761  1.2508  0.4185
  239POPC   H3S14925   4.265   1.651   3.110 -0.7072 -1.5292  1.4604
  239POPC   C2414926   4.329   1.595   3.325  0.4882 -0.6680  0.1968
  239POPC   H4R14927   4.221   1.581   3.346  0.1147  0.1309 -1.0394
  239POPC   H4S14928   4.376   1.660   3.401  3.0473  0.4776 -2.1652
  239POPC   C2514929   4.409   1.471   3.305  0.6198 -0.0298 -0.1665
  239POPC   H5R14930   4.510   1.490   3.261  1.9970  0.8797  3.0660
  239POPC   H5S14931   4.346   1.413   3.234  0.1755  2.1363 -1.6375
  239POPC   C2614932   4.419   1.380   3.437 -0.7177 -0.0380  0.5201
  239POPC   H6R14933   4.453   1.281   3.400 -0.8872  0.5397 -1.3170
  239POPC   H6S14934   4.316   1.373   3.477 -0.8006  0.0122  0.3173
  239POPC   C2714935   4.513   1.429   3.539  0.1355  0.2170 -0.6501
  239POPC   H7R14936   4.531   1.346   3.610  0.5241 -0.1122 -1.1315
  239POPC   H7S14937   4.465   1.513   3.596  3.0789  0.2746  2.0230
  239POPC   C2814938   4.658   1.466   3.493 -0.0629  0.7250 -0.0090
  239POPC   H8R14939   4.715   1.518   3.573 -4.0768  2.6900  1.8872
  239POPC   H8S14940   4.648   1.539   3.410  3.1903 -0.2639 -1.4086
  239POPC   C2914941   4.733   1.344   3.435  0.0273  1.0530  0.2413
  239POPC   H9114942   4.707   1.315   3.332  2.7816 -0.2874 -0.1593
  239POPC  C21014943   4.851   1.295   3.481 -0.1246 -0.7683  0.9093
  239POPC  H10114944   4.901   1.218   3.421 -0.2890  0.4238 -0.8389
  239POPC  C21114945   4.921   1.341   3.606  0.0133 -0.0424 -0.0797
  239POPC  H11R14946   4.912   1.449   3.632 -0.8430  0.2896 -1.6432
  239POPC  H11S14947   5.028   1.311   3.597  0.0721  0.7904 -3.3345
  239POPC  C21214948   4.861   1.271   3.729 -0.2337  0.3587 -0.3485
  239POPC  H12R14949   4.865   1.161   3.718 -0.6996  0.1245  1.5251
  239POPC  H12S14950   4.755   1.306   3.723 -0.5051 -0.6744 -2.4944
  239POPC  C21314951   4.905   1.318   3.871  0.0923  0.5169  0.1795
  239POPC  H13R14952   5.015   1.316   3.880  0.1697 -1.0782 -0.6495
  239POPC  H13S14953   4.880   1.239   3.946  0.3005  1.1927  0.9776
  239POPC  C21414954   4.824   1.443   3.903  0.5395 -0.4586  0.5562
  239POPC  H14R14955   4.716   1.418   3.900  0.2700  0.6358 -2.6185
  239POPC  H14S14956   4.849   1.528   3.835  0.2553 -0.9363 -0.1603
  239POPC  C21514957   4.853   1.494   4.049  0.1838 -0.3865  0.2986
  239POPC  H15R14958   4.962   1.509   4.066  0.3460 -0.8459 -0.2795
  239POPC  H15S14959   4.822   1.414   4.120 -0.6806 -3.6942 -3.4664
  239POPC  C21614960   4.779   1.621   4.099 -0.3208 -0.1335  0.1987
  239POPC  H16R14961   4.772   1.673   4.002  0.0193  0.7246  0.6280
  239POPC  H16S14962   4.849   1.677   4.164  0.7241  0.5693 -1.4572
  239POPC  C21714963   4.640   1.610   4.154 -0.0468 -0.5967  0.3644
  239POPC  H17R14964   4.597   1.539   4.081  0.2709  0.5099 -0.9204
  239POPC  H17S14965   4.601   1.714   4.147  3.5726  0.9230  0.2598
  239POPC  C21814966   4.642   1.547   4.286 -0.5447  0.7323 -0.1268
  239POPC  H18R14967   4.710   1.594   4.360  0.5373  0.7574 -1.1035
  239POPC  H18S14968   4.674   1.440   4.281 -0.0974  0.7640  1.4623
  239POPC  H18T14969   4.547   1.553   4.343 -1.5813 -1.4845 -1.4856
  239POPC   C3314970   3.748   2.184   3.344 -0.1002 -0.1814  0.1582
  239POPC   H3X14971   3.843   2.158   3.396  1.0541  1.1755 -1.1881
  239POPC   H3Y14972   3.709   2.099   3.284  1.0900 -1.4284  1.1157
  239POPC   C3414973   3.638   2.192   3.453 -0.9383 -0.0241  0.0560
  239POPC   H4X14974   3.635   2.291   3.504  1.4686 -0.5319  1.3857
  239POPC   H4Y14975   3.664   2.128   3.540  0.6624  0.7267  0.1692
  239POPC   C3514976   3.501   2.138   3.389 -0.3075  0.5028 -0.4651
  239POPC   H5X14977   3.516   2.045   3.330  1.0399  0.9138 -0.8000
  239POPC   H5Y14978   3.463   2.220   3.324 -2.0224  0.0632 -0.0719
  239POPC   C3614979   3.393   2.102   3.494  0.7032 -0.2708 -0.1079
  239POPC   H6X14980   3.433   2.014   3.549  0.8972  0.6030  1.2226
  239POPC   H6Y14981   3.303   2.067   3.440 -0.2579  0.0201  1.2525
  239POPC   C3714982   3.359   2.223   3.589  0.1625  0.0200 -0.3907
  239POPC   H7X14983   3.309   2.304   3.533 -0.9005  1.0259  1.8895
  239POPC   H7Y14984   3.448   2.254   3.649  0.2251  0.4423 -0.6989
  239POPC   C3814985   3.255   2.177   3.687  1.0703 -0.1498  0.0185
  239POPC   H8X14986   3.282   2.076   3.724 -1.2402 -1.5122 -1.7037
  239POPC   H8Y14987   3.156   2.153   3.642 -1.2592  2.9606  2.9454
  239POPC   C3914988   3.218   2.291   3.790 -0.3895  0.4147  0.0650
  239POPC   H9X14989   3.122   2.265   3.839 -1.1005  0.7751 -1.0831
  239POPC   H9Y14990   3.206   2.393   3.749  1.0563  0.7002  0.3071
  239POPC  C31014991   3.337   2.302   3.887 -0.6914  0.5146 -0.3766
  239POPC  H10X14992   3.412   2.376   3.854  0.4517 -0.8093 -0.8532
  239POPC  H10Y14993   3.385   2.203   3.905 -1.5128  0.5669  2.6445
  239POPC  C31114994   3.278   2.353   4.026 -0.1945 -0.8128  0.2331
  239POPC  H11X14995   3.215   2.442   4.004 -2.5539 -2.6718 -1.0577
  239POPC  H11Y14996   3.362   2.404   4.078  0.6227 -0.1298 -1.6826
  239POPC  C31214997   3.199   2.256   4.116  0.0454 -0.0724  0.2747
  239POPC  H12X14998   3.101   2.239   4.067  0.3693  1.5454 -1.0280
  239POPC  H12Y14999   3.165   2.307   4.209  3.8730  1.1318  1.2168
  239POPC  C31315000   3.274   2.133   4.152  0.1126  0.1078 -0.6245
  239POPC  H13X15001   3.268   2.060   4.068  2.1135 -0.7419 -0.1063
  239POPC  H13Y15002   3.224   2.073   4.231 -3.7222  0.8985 -2.2200
  239POPC  C31415003   3.422   2.154   4.194 -0.2069  0.5410 -0.0490
  239POPC  H14X15004   3.475   2.204   4.111 -1.3860  0.4191 -0.9045
  239POPC  H14Y15005   3.464   2.052   4.209  0.6227  0.8262 -0.4107
  239POPC  C31515006   3.436   2.212   4.338  0.0922  0.2740 -0.7996
  239POPC  H15X15007   3.376   2.156   4.414  1.4586 -0.8168 -0.4818
  239POPC  H15Y15008   3.410   2.319   4.352 -0.3853 -0.1158  1.9084
  239POPC  C31615009   3.587   2.210   4.384  0.0556  0.3701 -0.5393
  239POPC  H16X15010   3.592   2.256   4.486 -1.2795  2.2410 -1.2526
  239POPC  H16Y15011   3.638   2.281   4.316  0.9274  0.2288 -0.0402
  239POPC  H16Z15012   3.640   2.113   4.373  0.0758  0.4995 -1.7042
  240POPC     N15013   0.234   3.083   2.446 -0.3711  0.6032  0.4118
  240POPC   C1215014   0.306   3.104   2.575 -0.0715  0.4365 -0.1176
  240POPC  H12A15015   0.312   3.210   2.591 -4.2543  0.6129  1.3470
  240POPC  H12B15016   0.404   3.058   2.573  0.4448  1.5330 -0.3347
  240POPC   C1315017   0.089   3.118   2.440 -0.3001  0.3694 -0.8239
  240POPC  H13A15018   0.044   3.072   2.527 -0.0365 -3.3750 -2.4818
  240POPC  H13B15019   0.079   3.225   2.449  1.4838  0.4015  2.5126
  240POPC  H13C15020   0.040   3.069   2.357  0.3695 -0.6773 -0.6302
  240POPC   C1415021   0.308   3.154   2.340 -0.4474 -0.5263 -0.2482
  240POPC  H14A15022   0.321   3.253   2.382 -0.6681  0.4085 -2.2621
  240POPC  H14B15023   0.409   3.116   2.331 -0.6024 -0.8236 -0.7619
  240POPC  H14C15024   0.266   3.142   2.241 -0.3078  0.0022 -0.3755
  240POPC   C1515025   0.236   2.937   2.400  0.4044 -0.2678 -0.2744
  240POPC  H15A15026   0.201   2.912   2.301 -0.7974 -2.7581  0.6994
  240POPC  H15B15027   0.186   2.869   2.467  0.2239 -1.6698 -1.7703
  240POPC  H15C15028   0.338   2.902   2.407  0.9313  1.5312  4.1075
  240POPC   C1115029   0.235   3.063   2.709  0.2033 -0.4423  0.0852
  240POPC  H11A15030   0.144   3.125   2.723 -0.0645 -0.2417 -2.1647
  240POPC  H11B15031   0.295   3.077   2.802 -0.1195 -2.1619  0.6018
  240POPC     P15032   0.078   2.856   2.739  0.2247  0.3091 -0.4666
  240POPC   O1315033   0.095   2.713   2.744 -0.2864  0.2994 -0.1402
  240POPC   O1415034   6.434   2.905   2.638  0.5043 -0.4381  0.2120
  240POPC   O1215035   0.211   2.923   2.710  0.8178  0.3450  0.3948
  240POPC   O1115036   0.038   2.910   2.879  0.3948 -0.8750  0.6428
  240POPC    C115037   0.124   2.903   2.989 -0.2519  0.2742 -0.4187
  240POPC    HA15038   0.135   3.004   3.036 -0.3416 -0.3369  0.9609
  240POPC    HB15039   0.228   2.870   2.968 -0.5710 -1.8929  1.1423
  240POPC    C215040   0.066   2.809   3.102 -0.3300  0.1159 -1.0390
  240POPC    HS15041   0.050   2.713   3.049 -1.0998 -0.9859  1.0456
  240POPC   O2115042   6.391   2.876   3.153 -0.6869  0.6197 -0.0623
  240POPC   C2115043   6.297   2.781   3.197  0.0644 -0.1338  0.6391
  240POPC   O2215044   6.317   2.664   3.193 -0.6262  0.1772 -0.1735
  240POPC   C2215045   6.180   2.848   3.258  0.4615 -0.8556 -0.2955
  240POPC   H2R15046   6.136   2.914   3.180 -0.9800 -0.5879  0.7145
  240POPC   H2S15047   6.212   2.910   3.344 -2.1872  0.8228 -0.3910
  240POPC    C315048   0.174   2.793   3.210 -0.2411 -0.2893  0.1165
  240POPC    HX15049   0.136   2.736   3.298  1.3462 -2.8009 -0.7191
  240POPC    HY15050   0.186   2.896   3.250  0.3531 -0.4630  0.3939
  240POPC   O3115051   0.297   2.739   3.157  0.4915 -0.0423  0.0362
  240POPC   C3115052   0.409   2.813   3.148 -0.2290  0.5518  0.2731
  240POPC   O3215053   0.414   2.928   3.173  0.1233 -0.1258 -0.6633
  240POPC   C3215054   0.517   2.732   3.080  0.4750  0.4377 -0.2066
  240POPC   H2X15055   0.619   2.771   3.105 -0.0313  0.1329  2.6857
  240POPC   H2Y15056   0.487   2.723   2.974  0.8645 -1.3422 -0.1918
  240POPC   C2315057   6.075   2.746   3.306  0.9812 -0.2254  0.0787
  240POPC   H3R15058   6.043   2.675   3.226 -1.3325  0.8963 -0.0784
  240POPC   H3S15059   5.987   2.812   3.325 -1.1394 -3.2353  1.5504
  240POPC   C2415060   6.104   2.675   3.436 -0.3363 -0.2675 -0.8799
  240POPC   H4R15061   6.101   2.753   3.514 -0.2252  0.2000 -1.3360
  240POPC   H4S15062   6.202   2.625   3.428 -0.0738  0.2989 -1.2862
  240POPC   C2515063   5.989   2.571   3.463  0.0841 -0.4865 -0.0853
  240POPC   H5R15064   6.000   2.496   3.382  0.2116  0.0261 -0.5490
  240POPC   H5S15065   5.888   2.613   3.449 -0.0371 -0.0201  1.8787
  240POPC   C2615066   5.993   2.510   3.610 -0.3070 -0.0863  0.1783
  240POPC   H6R15067   5.997   2.600   3.675 -0.9829  1.0426 -1.3090
  240POPC   H6S15068   6.080   2.443   3.626 -0.2182 -0.6115 -2.1787
  240POPC   C2715069   5.868   2.432   3.646  0.0376  1.0175  1.0203
  240POPC   H7R15070   5.868   2.339   3.585  1.1113  1.7590 -0.1767
  240POPC   H7S15071   5.776   2.483   3.610 -1.1051 -1.1054  0.7859
  240POPC   C2815072   5.856   2.400   3.804 -0.0945  0.0492  0.5258
  240POPC   H8R15073   5.860   2.498   3.855 -2.4540  0.1201  0.6898
  240POPC   H8S15074   5.947   2.339   3.826 -1.2367 -2.7438 -1.8246
  240POPC   C2915075   5.740   2.317   3.844 -0.6561 -0.9086 -0.0837
  240POPC   H9115076   5.641   2.357   3.818  0.2010  0.8477 -0.8422
  240POPC  C21015077   5.747   2.188   3.882  0.6323  0.1743  0.2040
  240POPC  H10115078   5.651   2.141   3.908  0.8826 -0.6415 -0.3017
  240POPC  C21115079   5.861   2.109   3.938 -0.7882  0.3244  0.1986
  240POPC  H11R15080   5.883   2.145   4.040 -0.0788  0.0626  0.1429
  240POPC  H11S15081   5.952   2.133   3.879 -0.9264  0.6912  0.1321
  240POPC  C21215082   5.840   1.953   3.938 -0.2441 -0.4206  0.1559
  240POPC  H12R15083   5.939   1.929   3.983  0.2581  0.6775 -0.3341
  240POPC  H12S15084   5.831   1.913   3.835 -1.2992  0.4639 -0.1081
  240POPC  C21315085   5.731   1.896   4.031 -0.4954  0.7702 -0.2405
  240POPC  H13R15086   5.715   1.790   4.000  0.8074  0.7590 -0.9886
  240POPC  H13S15087   5.632   1.943   4.015 -0.3709  1.1121  0.0022
  240POPC  C21415088   5.751   1.897   4.182 -0.3134 -0.1335  0.1211
  240POPC  H14R15089   5.780   2.002   4.203  0.6856 -0.4171  0.2049
  240POPC  H14S15090   5.841   1.845   4.219 -0.1351  0.4380  0.5109
  240POPC  C21515091   5.629   1.866   4.267 -0.0117  1.0408 -0.4176
  240POPC  H15R15092   5.613   1.757   4.250  0.8539  0.9263 -0.5377
  240POPC  H15S15093   5.534   1.916   4.236 -0.7795  0.7299  1.3285
  240POPC  C21615094   5.660   1.901   4.411 -0.6235  0.2574  0.3256
  240POPC  H16R15095   5.639   2.008   4.435  0.2652  1.0064 -2.0433
  240POPC  H16S15096   5.766   1.874   4.427 -0.4795 -0.0957 -1.1431
  240POPC  C21715097   5.579   1.812   4.506 -0.0790 -0.5275 -0.3479
  240POPC  H17R15098   5.598   1.703   4.504 -0.9984 -0.6870 -1.0222
  240POPC  H17S15099   5.472   1.827   4.482 -0.0619  1.4185  0.6223
  240POPC  C21815100   5.611   1.858   4.649 -0.0478  1.1158  0.5426
  240POPC  H18R15101   5.564   1.793   4.726  0.5046  1.8850  1.5555
  240POPC  H18S15102   5.585   1.966   4.651  0.2573  1.2518 -1.1909
  240POPC  H18T15103   5.720   1.848   4.671  0.4084  1.0320 -1.5028
  240POPC   C3315104   0.524   2.586   3.138 -0.7060  0.2882 -0.3322
  240POPC   H3X15105   0.594   2.524   3.079  0.4914 -0.9797  2.2450
  240POPC   H3Y15106   0.423   2.539   3.138 -0.2924 -1.0344  3.6982
  240POPC   C3415107   0.584   2.591   3.282  0.2077  0.3589 -0.4455
  240POPC   H4X15108   0.559   2.685   3.334 -1.7826 -0.6815  0.5982
  240POPC   H4Y15109   0.694   2.609   3.278  0.5314 -0.7005  2.0731
  240POPC   C3515110   0.559   2.465   3.365 -0.6744  0.2152 -0.1054
  240POPC   H5X15111   0.452   2.446   3.385 -0.5479 -0.2009  0.1951
  240POPC   H5Y15112   0.615   2.460   3.461  0.0356 -0.2094 -0.5312
  240POPC   C3615113   0.624   2.346   3.290 -0.1055 -0.4350 -0.0086
  240POPC   H6X15114   0.733   2.366   3.292 -0.4852  1.8225  1.3643
  240POPC   H6Y15115   0.605   2.331   3.181  0.1147  1.1613 -0.2900
  240POPC   C3715116   0.598   2.209   3.357 -0.2725  0.4060 -0.0646
  240POPC   H7X15117   0.488   2.193   3.353 -0.0638 -1.2976  0.3229
  240POPC   H7Y15118   0.632   2.225   3.461 -0.6195 -1.3773  0.3477
  240POPC   C3815119   0.667   2.084   3.295  0.3108 -0.7451 -0.1909
  240POPC   H8X15120   0.646   2.086   3.186 -0.4060 -0.4105 -0.0533
  240POPC   H8Y15121   0.633   1.991   3.345 -2.5595  0.2367 -0.1424
  240POPC   C3915122   0.829   2.083   3.310  1.0772  0.1105  0.1140
  240POPC   H9X15123   0.857   2.181   3.267 -1.0717  1.4944  1.6158
  240POPC   H9Y15124   0.865   2.007   3.238 -0.5798  0.8941 -1.6316
  240POPC  C31015125   0.876   2.075   3.458  0.7498  1.1621  0.6689
  240POPC  H10X15126   0.850   1.971   3.489  0.5452  0.9419 -0.2097
  240POPC  H10Y15127   0.831   2.143   3.533  2.0054  2.1054  0.6016
  240POPC  C31115128   1.025   2.088   3.470  0.1916  0.1294 -0.3374
  240POPC  H11X15129   1.060   2.192   3.453 -1.1328  0.8754  1.2154
  240POPC  H11Y15130   1.076   2.027   3.393 -2.1609  1.0640 -2.7933
  240POPC  C31215131   1.075   2.067   3.613  0.5329  0.0613 -0.1961
  240POPC  H12X15132   1.024   2.143   3.675  0.7508 -0.3475  0.5063
  240POPC  H12Y15133   1.185   2.087   3.615  0.8802 -1.6458 -0.4776
  240POPC  C31315134   1.061   1.928   3.667  0.0624  0.0563  0.6073
  240POPC  H13X15135   1.091   1.853   3.590 -2.0327  0.9250 -1.1901
  240POPC  H13Y15136   0.951   1.910   3.673  0.1368 -0.9834 -0.5959
  240POPC  C31415137   1.132   1.911   3.795  0.1553  0.6633 -0.0122
  240POPC  H14X15138   1.128   1.999   3.863  0.3089 -0.7491  1.9018
  240POPC  H14Y15139   1.238   1.885   3.777 -0.3064 -0.7599 -0.8498
  240POPC  C31515140   1.076   1.800   3.884 -0.3270  0.6499 -0.3842
  240POPC  H15X15141   1.073   1.710   3.820  1.3594  0.2637  0.0157
  240POPC  H15Y15142   0.973   1.815   3.921 -0.3844 -0.1468 -0.1915
  240POPC  C31615143   1.157   1.763   4.003 -0.1848  0.4384  0.0561
  240POPC  H16X15144   1.258   1.726   3.974  0.0499 -0.1829  1.5891
  240POPC  H16Y15145   1.110   1.686   4.067 -1.4768 -0.0940 -1.4851
  240POPC  H16Z15146   1.178   1.858   4.057  2.0763  0.2633 -0.4182
  241POPC     N15147   1.302   0.311   3.322  0.2880  0.6798 -0.2035
  241POPC   C1215148   1.315   0.457   3.289 -0.1856  0.2746 -0.3953
  241POPC  H12A15149   1.234   0.488   3.224  0.1301 -1.3708 -1.6548
  241POPC  H12B15150   1.409   0.479   3.241 -0.1171  2.6358  0.7085
  241POPC   C1315151   1.205   0.294   3.428  0.4257  0.0606 -0.5794
  241POPC  H13A15152   1.110   0.322   3.385  0.4906 -1.3052 -1.6813
  241POPC  H13B15153   1.217   0.191   3.460  2.1132 -0.8867 -3.7979
  241POPC  H13C15154   1.226   0.361   3.510  0.9305  1.0318 -1.4988
  241POPC   C1415155   1.261   0.229   3.206 -0.0534  0.6987 -0.2768
  241POPC  H14A15156   1.340   0.232   3.133  1.5950 -2.5952  1.1958
  241POPC  H14B15157   1.240   0.125   3.225 -1.2166  0.9845  0.1099
  241POPC  H14C15158   1.170   0.277   3.171 -1.5244 -0.5462  1.6246
  241POPC   C1515159   1.429   0.258   3.369  0.1428 -0.1409  0.0552
  241POPC  H15A15160   1.500   0.263   3.288  0.7955 -1.8219  0.4964
  241POPC  H15B15161   1.420   0.157   3.404  0.1448  0.2659  1.2718
  241POPC  H15C15162   1.464   0.320   3.450 -0.3929 -1.6913  1.5270
  241POPC   C1115163   1.328   0.556   3.413 -0.3706  0.0151 -0.0653
  241POPC  H11A15164   1.228   0.583   3.454 -0.1931 -1.1023  1.2020
  241POPC  H11B15165   1.360   0.650   3.365 -0.7097 -0.8772 -2.1990
  241POPC     P15166   1.564   0.556   3.533  0.4910  0.4408  0.4951
  241POPC   O1315167   1.619   0.612   3.412  0.2753 -0.1221  0.1903
  241POPC   O1415168   1.646   0.445   3.585  0.8246 -0.3814 -0.9315
  241POPC   O1215169   1.413   0.509   3.519  0.0592  0.6512  0.9660
  241POPC   O1115170   1.545   0.672   3.638 -0.7537 -0.1074  0.4295
  241POPC    C115171   1.477   0.660   3.757  0.1072 -0.3195 -0.6855
  241POPC    HA15172   1.375   0.618   3.746 -0.1193 -0.9126  2.6019
  241POPC    HB15173   1.477   0.767   3.785  0.4240 -0.9028  1.7325
  241POPC    C215174   1.555   0.589   3.866 -0.0342 -0.2918  0.4266
  241POPC    HS15175   1.649   0.553   3.818 -0.7378 -2.5402  0.6023
  241POPC   O2115176   1.484   0.475   3.913  0.6094  0.3529 -0.2389
  241POPC   C2115177   1.563   0.391   3.984  0.8858  0.4404 -0.1894
  241POPC   O2215178   1.686   0.400   3.977  0.0369  0.2690 -0.6963
  241POPC   C2215179   1.486   0.279   4.056 -0.3625 -0.1774 -0.7664
  241POPC   H2R15180   1.468   0.210   3.970 -0.2142  0.5405 -1.3826
  241POPC   H2S15181   1.390   0.319   4.095  0.2186  0.5054  0.0136
  241POPC    C315182   1.589   0.684   3.988 -0.0084 -0.1303  0.0241
  241POPC    HX15183   1.655   0.756   3.934 -0.5268 -0.8417 -1.6455
  241POPC    HY15184   1.648   0.628   4.063 -2.9629 -1.5044  1.5106
  241POPC   O3115185   1.471   0.743   4.038 -0.1982  0.3052 -0.9089
  241POPC   C3115186   1.422   0.687   4.146  0.7056  0.1462  0.2873
  241POPC   O3215187   1.467   0.599   4.213 -0.4933  0.4218  0.0144
  241POPC   C3215188   1.288   0.760   4.176 -0.0999 -0.1205  0.7240
  241POPC   H2X15189   1.221   0.728   4.094  2.1108  0.6506 -1.5227
  241POPC   H2Y15190   1.307   0.869   4.186  1.3299 -0.3177  0.4438
  241POPC   C2315191   1.571   0.206   4.168 -0.3847 -0.4380 -0.6627
  241POPC   H3R15192   1.675   0.182   4.137 -0.3510 -1.6097  0.2912
  241POPC   H3S15193   1.522   0.112   4.200  2.2615 -0.9784  2.3052
  241POPC   C2415194   1.589   0.302   4.288 -0.7648  1.1392  0.3239
  241POPC   H4R15195   1.489   0.324   4.330 -1.1193 -0.8378  0.5799
  241POPC   H4S15196   1.639   0.392   4.244  0.9976 -0.5170 -1.2498
  241POPC   C2515197   1.675   0.250   4.403 -0.3884  0.3022  0.3631
  241POPC   H5R15198   1.779   0.225   4.377  0.0725  1.0260  1.4274
  241POPC   H5S15199   1.624   0.162   4.449 -1.5462  0.1910 -1.0591
  241POPC   C2615200   1.684   0.365   4.508 -0.7625  0.2622 -0.7275
  241POPC   H6R15201   1.750   0.320   4.585 -1.3901  1.2988  0.4390
  241POPC   H6S15202   1.590   0.393   4.559  1.2407  2.5681  2.0517
  241POPC   C2715203   1.733   0.500   4.455 -0.6908 -0.1788 -0.9686
  241POPC   H7R15204   1.642   0.523   4.395 -1.7607 -0.0842  0.6381
  241POPC   H7S15205   1.832   0.485   4.406 -0.1422  1.1901 -0.3397
  241POPC   C2815206   1.742   0.614   4.556  0.7112 -0.6516 -0.1745
  241POPC   H8R15207   1.640   0.638   4.593  1.5547  1.8924  0.7170
  241POPC   H8S15208   1.764   0.714   4.511 -0.0219  1.2554  3.3167
  241POPC   C2915209   1.828   0.581   4.678  0.4618 -0.1557  0.4970
  241POPC   H9115210   1.922   0.638   4.669  1.1742 -1.3129  0.3518
  241POPC  C21015211   1.777   0.546   4.792  0.3389  0.0555 -0.0294
  241POPC  H10115212   1.842   0.530   4.879  0.8326  1.9365 -0.0108
  241POPC  C21115213   1.632   0.497   4.823 -0.6563  0.7023  0.6130
  241POPC  H11R15214   1.558   0.506   4.740  0.4862  0.7183 -0.4270
  241POPC  H11S15215   1.586   0.558   4.903 -1.3606  0.1405  0.6508
  241POPC  C21215216   1.624   0.347   4.865 -0.7981  0.1541  0.0585
  241POPC  H12R15217   1.660   0.287   4.778 -0.7478  1.5742 -0.9451
  241POPC  H12S15218   1.522   0.313   4.893 -0.1702 -0.7390  1.3280
  241POPC  C21315219   1.718   0.314   4.978  0.7172  0.3679 -0.3471
  241POPC  H13R15220   1.823   0.318   4.942  1.8848  1.1130  2.8554
  241POPC  H13S15221   1.704   0.208   5.009  3.0753  0.7073  2.3010
  241POPC  C21415222   1.710   0.395   5.105 -0.3521 -0.0581 -1.1947
  241POPC  H14R15223   1.606   0.412   5.139 -0.1947 -0.8536 -0.2761
  241POPC  H14S15224   1.749   0.496   5.079 -0.4193 -0.1789 -1.7742
  241POPC  C21515225   1.810   0.354   5.220  1.0765  0.0729  0.5194
  241POPC  H15R15226   1.821   0.441   5.288 -0.5794 -0.4733  1.5357
  241POPC  H15S15227   1.907   0.329   5.172  0.5176  0.4037 -0.8261
  241POPC  C21615228   1.765   0.245   5.312  0.6548 -0.1609 -0.7436
  241POPC  H16R15229   1.730   0.157   5.253  0.7601 -2.1437  1.9365
  241POPC  H16S15230   1.680   0.282   5.373  2.9145  1.9797  1.3430
  241POPC  C21715231   1.879   0.202   5.406 -0.8748  0.0874 -1.1542
  241POPC  H17R15232   1.860   0.141   5.497  1.4332 -0.4339 -0.9625
  241POPC  H17S15233   1.921   0.297   5.446  0.8573 -1.6328  1.4136
  241POPC  C21815234   1.989   0.126   5.335  0.2537  0.7847 -0.0104
  241POPC  H18R15235   2.044   0.188   5.261 -0.3450 -0.8005 -1.8848
  241POPC  H18S15236   1.941   0.039   5.284  2.3737 -2.4215  3.0286
  241POPC  H18T15237   2.069   0.097   5.406  3.3885 -1.3768 -4.0429
  241POPC   C3315238   1.226   0.715   4.305 -0.7861 -0.5941  0.2590
  241POPC   H3X15239   1.272   0.779   4.383 -2.4629  1.2298 -0.1824
  241POPC   H3Y15240   1.252   0.608   4.320 -0.3772 -0.6884 -1.0162
  241POPC   C3415241   1.076   0.726   4.309  0.2325 -0.0219 -0.6460
  241POPC   H4X15242   1.038   0.680   4.215  1.6603  0.8185 -1.6647
  241POPC   H4Y15243   1.059   0.836   4.308  3.6541  0.6078 -0.8940
  241POPC   C3515244   1.017   0.659   4.437 -0.8249  0.4067 -0.0690
  241POPC   H5X15245   1.080   0.694   4.522 -0.3522  0.4429 -0.4323
  241POPC   H5Y15246   1.043   0.551   4.435 -1.2005  0.3243 -0.3997
  241POPC   C3615247   0.872   0.694   4.455  0.6751  0.0536 -0.3672
  241POPC   H6X15248   0.817   0.668   4.362 -0.8934  0.5284  0.3922
  241POPC   H6Y15249   0.851   0.801   4.478 -0.8636  0.2649 -2.4516
  241POPC   C3715250   0.806   0.607   4.556  0.0389  0.5488  1.0644
  241POPC   H7X15251   0.819   0.501   4.523  1.2750  1.1338 -0.4127
  241POPC   H7Y15252   0.697   0.622   4.569 -0.2979 -0.0044 -0.8722
  241POPC   C3815253   0.861   0.599   4.697  0.4245  0.3543 -0.0650
  241POPC   H8X15254   0.838   0.694   4.749 -2.4490 -0.1771 -0.1978
  241POPC   H8Y15255   0.972   0.586   4.697  0.5568  1.1682 -2.2832
  241POPC   C3915256   0.792   0.492   4.774  0.6329  0.0742 -0.3793
  241POPC   H9X15257   0.825   0.391   4.743  1.6539 -0.8463  3.2478
  241POPC   H9Y15258   0.686   0.504   4.743  0.9733  0.4391 -1.4614
  241POPC  C31015259   0.788   0.516   4.927  0.6164 -1.1305 -1.0335
  241POPC  H10X15260   0.760   0.620   4.954  1.1565 -1.0102 -0.9087
  241POPC  H10Y15261   0.889   0.500   4.972  0.3942  0.8598  0.3149
  241POPC  C31115262   0.700   0.416   5.013 -0.3880  0.3064 -0.0488
  241POPC  H11X15263   0.760   0.323   5.017 -0.4958  0.2651  0.7157
  241POPC  H11Y15264   0.615   0.406   4.942  0.1875  0.1297 -0.7249
  241POPC  C31215265   0.660   0.462   5.155  0.5173 -0.1950  0.4412
  241POPC  H12X15266   0.586   0.545   5.158  0.1720 -0.4724 -0.1157
  241POPC  H12Y15267   0.754   0.494   5.206  0.1587  0.5915  0.6299
  241POPC  C31315268   0.584   0.348   5.226 -0.3354 -0.5972  0.7696
  241POPC  H13X15269   0.530   0.299   5.143  0.6613 -0.2841 -0.0844
  241POPC  H13Y15270   0.507   0.388   5.296  0.5676 -1.7025  2.4807
  241POPC  C31415271   0.684   0.243   5.286  0.5789  0.1482  0.3994
  241POPC  H14X15272   0.748   0.290   5.364 -0.0294 -0.2823  1.1723
  241POPC  H14Y15273   0.746   0.208   5.200  0.3319  0.9609 -0.1228
  241POPC  C31515274   0.607   0.129   5.354 -0.7704 -0.4590  0.1131
  241POPC  H15X15275   0.670   0.038   5.348 -1.1794 -0.8790  1.7943
  241POPC  H15Y15276   0.512   0.128   5.298 -0.9766  2.9894  0.1679
  241POPC  C31615277   0.584   0.150   5.503 -0.7085 -0.5341 -0.4190
  241POPC  H16X15278   0.544   0.253   5.507 -2.5375 -1.2244  0.1510
  241POPC  H16Y15279   0.676   0.148   5.565 -1.2419  2.6713  0.6479
  241POPC  H16Z15280   0.508   0.080   5.545 -0.2157 -1.3643 -0.8942
  242POPC     N15281   0.413   0.771   2.407  0.2381  0.0615 -1.0110
  242POPC   C1215282   0.468   0.769   2.545  0.4997 -0.5065 -0.5309
  242POPC  H12A15283   0.459   0.669   2.584  0.5855 -0.4105 -0.2650
  242POPC  H12B15284   0.405   0.827   2.612  0.5147 -2.0893  0.9260
  242POPC   C1315285   0.447   0.648   2.335  0.1918 -0.0817 -0.0988
  242POPC  H13A15286   0.425   0.560   2.394 -0.1599  0.2457  0.2670
  242POPC  H13B15287   0.383   0.626   2.251  0.1101 -0.9599  0.1816
  242POPC  H13C15288   0.549   0.638   2.301 -0.1224 -1.0896 -0.8013
  242POPC   C1415289   0.264   0.765   2.420 -0.7799  0.4910  0.0251
  242POPC  H14A15290   0.243   0.676   2.478 -1.4253  0.5433 -0.1214
  242POPC  H14B15291   0.218   0.845   2.476  0.3797  0.0759  1.6525
  242POPC  H14C15292   0.215   0.762   2.324  1.1426  2.8573 -1.1254
  242POPC   C1515293   0.446   0.894   2.327 -0.2472  0.6785 -0.1082
  242POPC  H15A15294   0.386   0.899   2.237 -0.0951 -0.2940 -0.2815
  242POPC  H15B15295   0.553   0.893   2.306  0.0494 -1.5276  1.1940
  242POPC  H15C15296   0.434   0.981   2.389  1.2506 -0.1275  1.4139
  242POPC   C1115297   0.613   0.798   2.568  0.1168 -0.0846  0.7913
  242POPC  H11A15298   0.629   0.803   2.678  2.3712  2.6613  0.4451
  242POPC  H11B15299   0.638   0.898   2.526 -0.9424 -0.3388 -0.4999
  242POPC     P15300   0.718   0.559   2.580 -0.1408  0.1490  0.0336
  242POPC   O1315301   0.834   0.482   2.527 -0.2286 -0.1013 -0.1617
  242POPC   O1415302   0.588   0.493   2.579 -0.2517 -0.0335 -0.4361
  242POPC   O1215303   0.696   0.697   2.507 -0.3236  0.2955 -0.3828
  242POPC   O1115304   0.753   0.603   2.721  0.2651 -0.6853 -0.4191
  242POPC    C115305   0.688   0.545   2.839  0.0823 -0.1559 -0.1129
  242POPC    HA15306   0.581   0.516   2.824  0.2113 -0.5817 -0.2172
  242POPC    HB15307   0.690   0.624   2.917 -0.7736 -0.3125  0.0845
  242POPC    C215308   0.774   0.431   2.905 -0.6410  0.3786 -0.5362
  242POPC    HS15309   0.779   0.343   2.837  2.5294 -1.8849  2.2691
  242POPC   O2115310   0.725   0.388   3.036  0.4380  0.6438 -0.2638
  242POPC   C2115311   0.777   0.269   3.079  0.0945 -0.2020  0.0049
  242POPC   O2215312   0.863   0.205   3.026 -0.6355 -0.4823 -0.2965
  242POPC   C2215313   0.707   0.240   3.217  0.4821  0.1538  0.2842
  242POPC   H2R15314   0.624   0.167   3.208  2.4680 -2.2733  0.5805
  242POPC   H2S15315   0.673   0.340   3.250  0.8267  0.2513  0.3492
  242POPC    C315316   0.925   0.467   2.915  0.1685  0.0517  0.2629
  242POPC    HX15317   0.955   0.487   2.809  0.8888 -0.3362  0.3872
  242POPC    HY15318   0.988   0.381   2.944  1.4415  0.8585 -0.0230
  242POPC   O3115319   0.940   0.589   2.992 -0.9406  0.0659 -0.7935
  242POPC   C3115320   0.974   0.565   3.119  0.4866  0.0615 -0.5222
  242POPC   O3215321   1.002   0.459   3.172 -0.2575 -0.4696  0.1423
  242POPC   C3215322   0.982   0.707   3.189 -0.4080  0.1728 -0.1645
  242POPC   H2X15323   1.067   0.765   3.145 -1.4633  1.5594 -0.4395
  242POPC   H2Y15324   1.017   0.682   3.291  0.2501  3.3867  0.5249
  242POPC   C2315325   0.809   0.186   3.321  0.0033  0.3380  0.6960
  242POPC   H3R15326   0.912   0.228   3.310  0.7109 -1.7053 -1.2801
  242POPC   H3S15327   0.821   0.080   3.290  0.6562  1.2579 -2.5172
  242POPC   C2415328   0.775   0.217   3.462 -0.4182  0.8971 -0.0234
  242POPC   H4R15329   0.777   0.328   3.471  2.9521  0.7771  2.7333
  242POPC   H4S15330   0.849   0.180   3.535  0.4141  0.9250 -0.8313
  242POPC   C2515331   0.626   0.173   3.496 -0.2404  0.6294 -0.5623
  242POPC   H5R15332   0.561   0.225   3.423  1.5788  2.3840 -1.0237
  242POPC   H5S15333   0.613   0.232   3.590  1.8448 -0.4436  0.4747
  242POPC   C2615334   0.589   6.467   3.519 -1.1476 -0.4738 -0.1604
  242POPC   H6R15335   0.650   6.419   3.599 -0.5349 -0.3015 -0.5172
  242POPC   H6S15336   0.610   6.418   3.421  0.8046 -1.4175  0.6644
  242POPC   C2715337   0.440   0.001   3.546 -1.0845 -0.6997 -0.0399
  242POPC   H7R15338   0.388   0.063   3.470  1.6286 -0.5658 -1.9378
  242POPC   H7S15339   0.413   0.040   3.646  2.5025  0.3312  0.6661
  242POPC   C2815340   0.398   6.294   3.528 -0.2131  0.1151 -0.0110
  242POPC   H8R15341   0.410   6.251   3.426  4.8118 -2.3352  1.3174
  242POPC   H8S15342   0.289   6.297   3.550 -0.7526  0.4895 -2.3981
  242POPC   C2915343   0.482   6.199   3.613 -0.1656 -0.8773 -0.6904
  242POPC   H9115344   0.558   6.142   3.558 -1.8432 -1.6093 -2.3531
  242POPC  C21015345   0.466   6.175   3.743 -0.1184  0.2606 -0.1013
  242POPC  H10115346   0.522   6.093   3.791 -1.2975 -0.9723 -0.7790
  242POPC  C21115347   0.367   6.244   3.829 -0.0532  0.2304  0.3879
  242POPC  H11R15348   0.307   6.160   3.871  0.4967  1.1916  3.2865
  242POPC  H11S15349   0.305   6.312   3.767  2.6358  0.0080 -2.8519
  242POPC  C21215350   0.427   6.316   3.944  0.0295 -0.2773  1.0308
  242POPC  H12R15351   0.494   6.392   3.899 -2.2298  0.0874 -2.0843
  242POPC  H12S15352   0.482   6.256   4.019  0.8560 -1.2940 -0.3424
  242POPC  C21315353   0.312   6.373   4.033  0.1377 -0.2517  0.5579
  242POPC  H13R15354   0.231   6.432   3.986  1.4836  2.0303  0.9420
  242POPC  H13S15355   0.360   6.446   4.102  1.5404  0.0376 -0.6758
  242POPC  C21415356   0.246   6.270   4.126  0.4529 -0.7316  0.0880
  242POPC  H14R15357   0.323   6.208   4.176  0.4896 -0.1594  0.7563
  242POPC  H14S15358   0.185   6.206   4.058 -1.4905 -0.8398  1.8185
  242POPC  C21515359   0.154   6.347   4.219  0.8916 -0.2096 -0.4360
  242POPC  H15R15360   0.076   6.272   4.246 -0.6757  1.6389  0.4553
  242POPC  H15S15361   0.109   6.434   4.166  1.0570  0.7279  0.9146
  242POPC  C21615362   0.203   6.410   4.348 -0.4980  0.3562 -0.5377
  242POPC  H16R15363   0.293   6.474   4.336  1.2547 -1.5833  1.4119
  242POPC  H16S15364   0.230   6.323   4.413 -0.7267  0.0437 -0.8558
  242POPC  C21715365   0.101   0.057   4.419 -0.3791 -0.0026  0.1232
  242POPC  H17R15366   0.008   0.005   4.450 -0.6094 -0.2481 -0.9339
  242POPC  H17S15367   0.075   0.133   4.343 -2.3895 -0.7385  0.0226
  242POPC  C21815368   0.160   0.112   4.549  0.5225 -0.0305  0.0958
  242POPC  H18R15369   0.234   0.039   4.588  2.4079  0.6018 -2.0924
  242POPC  H18S15370   0.072   0.128   4.616  0.3774 -0.4950  0.0198
  242POPC  H18T15371   0.201   0.214   4.533  1.3675 -0.6116 -1.6453
  242POPC   C3315372   0.846   0.787   3.191  0.4576  1.0269  0.7899
  242POPC   H3X15373   0.829   0.826   3.088 -3.6215 -0.3885  0.7309
  242POPC   H3Y15374   0.863   0.867   3.266  1.7564  2.3394 -0.8350
  242POPC   C3415375   0.719   0.704   3.229  0.0271 -0.5035 -0.1846
  242POPC   H4X15376   0.708   0.612   3.168 -2.7851 -0.3645 -0.0179
  242POPC   H4Y15377   0.637   0.778   3.217  1.1186  0.4100 -2.6783
  242POPC   C3515378   0.726   0.647   3.367  0.0051 -0.5463 -0.1488
  242POPC   H5X15379   0.745   0.733   3.435  0.1078  0.5941 -1.5810
  242POPC   H5Y15380   0.806   0.571   3.378 -0.9043 -1.5779 -0.4891
  242POPC   C3615381   0.584   0.604   3.415 -0.7077 -0.4227 -0.2668
  242POPC   H6X15382   0.532   0.520   3.364 -3.1891  0.8760 -0.0163
  242POPC   H6Y15383   0.520   0.694   3.404 -0.5863 -0.3927 -0.7575
  242POPC   C3715384   0.570   0.568   3.565 -0.0670  0.1572  0.0589
  242POPC   H7X15385   0.620   0.651   3.619  0.9484 -0.8154  0.6629
  242POPC   H7Y15386   0.635   0.481   3.589  1.0205 -0.1203 -3.4193
  242POPC   C3815387   0.430   0.562   3.620  0.0796 -0.2324  0.5789
  242POPC   H8X15388   0.373   0.478   3.574  0.9884  0.2580 -1.5700
  242POPC   H8Y15389   0.374   0.657   3.603  1.9860  0.9458  0.6537
  242POPC   C3915390   0.425   0.550   3.776  0.2651 -0.1804 -0.3140
  242POPC   H9X15391   0.322   0.571   3.813 -0.6883  0.8619 -3.2262
  242POPC   H9Y15392   0.494   0.631   3.806 -0.2583  0.4091 -0.6792
  242POPC  C31015393   0.496   0.413   3.822  0.8803 -0.3939  0.0296
  242POPC  H10X15394   0.599   0.407   3.782  1.3267  1.5425  0.7541
  242POPC  H10Y15395   0.434   0.336   3.772  2.7196 -1.3315 -0.9203
  242POPC  C31115396   0.503   0.398   3.976  0.2943  0.3616 -0.0859
  242POPC  H11X15397   0.541   0.294   3.992  0.4180  0.5921  1.2965
  242POPC  H11Y15398   0.400   0.399   4.018  0.0125 -0.8553 -0.6884
  242POPC  C31215399   0.594   0.499   4.043  0.2982  0.1166 -0.1181
  242POPC  H12X15400   0.545   0.595   4.018  0.4849 -0.1713 -1.7179
  242POPC  H12Y15401   0.694   0.522   4.000 -0.8687  0.2438 -3.0154
  242POPC  C31315402   0.610   0.479   4.193 -0.1255  0.5413 -0.2507
  242POPC  H13X15403   0.513   0.468   4.246  0.5824 -1.7448  0.7056
  242POPC  H13Y15404   0.668   0.561   4.241  3.2467 -0.9242 -1.5014
  242POPC  C31415405   0.705   0.355   4.221  0.3758  0.0753 -0.2300
  242POPC  H14X15406   0.813   0.378   4.219  0.3258  0.2808 -1.6467
  242POPC  H14Y15407   0.680   0.280   4.143 -1.1932 -1.0613  1.2817
  242POPC  C31515408   0.669   0.282   4.346  0.3754 -0.4278 -0.5420
  242POPC  H15X15409   0.664   0.355   4.430 -0.5596  0.6322 -1.4851
  242POPC  H15Y15410   0.743   0.203   4.372 -0.8468 -1.1866  0.7857
  242POPC  C31615411   0.540   0.197   4.341 -0.9501 -0.6018  0.5001
  242POPC  H16X15412   0.457   0.268   4.358 -0.3428  1.0194 -2.6182
  242POPC  H16Y15413   0.548   0.107   4.407  0.8329 -0.5979  0.3433
  242POPC  H16Z15414   0.538   0.157   4.238  1.1360  1.4959 -0.4556
  243POPC     N15415   1.555   2.981   2.305  0.0933 -0.1942 -0.2655
  243POPC   C1215416   1.534   2.846   2.369 -0.2050 -0.3260  0.2025
  243POPC  H12A15417   1.632   2.801   2.363 -0.4043 -0.7913  0.3316
  243POPC  H12B15418   1.474   2.775   2.315  0.6537 -0.8759 -0.0563
  243POPC   C1315419   1.431   3.063   2.309  0.1254  0.2245  0.3776
  243POPC  H13A15420   1.413   3.117   2.401 -1.1637  2.3991 -1.0609
  243POPC  H13B15421   1.445   3.139   2.234  0.2839  1.2577  1.4334
  243POPC  H13C15422   1.347   2.998   2.288  1.7873 -1.1029 -3.0708
  243POPC   C1415423   1.657   3.052   2.390  0.2555 -0.4526  0.3397
  243POPC  H14A15424   1.678   3.141   2.333  1.3750 -1.5318 -0.9905
  243POPC  H14B15425   1.617   3.076   2.488  1.8705  0.1444  0.8747
  243POPC  H14C15426   1.741   2.985   2.401  1.2271  0.7803  0.6689
  243POPC   C1515427   1.602   2.963   2.164 -0.4422 -0.2268 -0.0101
  243POPC  H15A15428   1.522   2.948   2.093 -2.4492  1.4549  1.7961
  243POPC  H15B15429   1.669   2.878   2.155  1.1421  0.9611  0.0106
  243POPC  H15C15430   1.656   3.051   2.132  1.0432 -0.4962  1.5635
  243POPC   C1115431   1.480   2.840   2.510 -0.7863  0.0875  0.3614
  243POPC  H11A15432   1.554   2.888   2.577  0.1360  1.0097 -1.2496
  243POPC  H11B15433   1.465   2.735   2.541 -2.5805  0.5180  1.1009
  243POPC     P15434   1.210   2.836   2.532  0.4918  0.0097 -0.2326
  243POPC   O1315435   1.190   2.712   2.445 -0.2183  0.4038 -0.0474
  243POPC   O1415436   1.117   2.943   2.509 -0.0910  0.0447 -0.3390
  243POPC   O1215437   1.355   2.902   2.529 -0.1784 -0.0263  0.1929
  243POPC   O1115438   1.189   2.791   2.683 -0.8514 -0.1796 -0.1182
  243POPC    C115439   1.289   2.839   2.780 -0.4580  0.2108 -0.1332
  243POPC    HA15440   1.331   2.936   2.747  2.0401 -1.0040 -0.7868
  243POPC    HB15441   1.373   2.766   2.788  0.5109  1.2149 -0.8446
  243POPC    C215442   1.233   2.862   2.922 -0.4863 -0.1993  0.0699
  243POPC    HS15443   1.311   2.900   2.990 -1.0272 -0.3158  0.7644
  243POPC   O2115444   1.190   2.737   2.969  0.6095 -0.1617 -0.7544
  243POPC   C2115445   1.277   2.683   3.049  0.1947  0.5388 -0.4041
  243POPC   O2215446   1.389   2.716   3.072 -0.5343 -0.7890 -0.2454
  243POPC   C2215447   1.215   2.568   3.122 -0.1433  0.8502  0.1618
  243POPC   H2R15448   1.292   2.487   3.124 -1.3381 -0.4057 -1.7749
  243POPC   H2S15449   1.136   2.515   3.066  0.9412  0.0146 -0.6291
  243POPC    C315450   1.123   2.968   2.935 -0.0216  0.1358  0.5033
  243POPC    HX15451   1.042   2.947   2.862 -0.0007  1.6804 -0.0221
  243POPC    HY15452   1.171   3.062   2.897 -1.3230  1.1386  1.2587
  243POPC   O3115453   1.088   2.990   3.071 -0.0181 -0.4638  0.2907
  243POPC   C3115454   0.982   2.915   3.109  0.0990 -0.3643 -0.5130
  243POPC   O3215455   0.922   2.836   3.041 -0.0984  0.2166 -0.3073
  243POPC   C3215456   0.932   2.965   3.245 -0.1135  0.4550  0.6092
  243POPC   H2X15457   0.959   3.073   3.249  2.6291 -0.1057 -0.4119
  243POPC   H2Y15458   0.979   2.896   3.318 -0.2718 -1.0394 -0.6597
  243POPC   C2315459   1.172   2.590   3.266 -0.1714 -0.6766 -0.0324
  243POPC   H3R15460   1.119   2.686   3.281  1.0875 -0.0815  0.8545
  243POPC   H3S15461   1.254   2.596   3.341 -1.6780  3.0965  1.6032
  243POPC   C2415462   1.074   2.487   3.300  0.1985  0.5051  0.4966
  243POPC   H4R15463   1.113   2.383   3.286 -2.1803 -0.3031 -0.7036
  243POPC   H4S15464   0.982   2.483   3.238 -0.0915 -2.6619  0.9382
  243POPC   C2515465   1.015   2.496   3.448 -0.3253 -0.7410  0.7927
  243POPC   H5R15466   0.941   2.416   3.469 -1.6036  0.3164  0.4604
  243POPC   H5S15467   0.968   2.595   3.465  0.1593 -0.1167 -1.1784
  243POPC   C2615468   1.122   2.483   3.560  0.6680  0.4038 -0.1070
  243POPC   H6R15469   1.186   2.574   3.557  2.1528 -0.6249 -1.2224
  243POPC   H6S15470   1.189   2.395   3.547 -1.5253 -1.1797 -1.5253
  243POPC   C2715471   1.046   2.472   3.698  0.0867  0.0412  0.6856
  243POPC   H7R15472   0.996   2.374   3.711 -0.5556  0.4928  1.7591
  243POPC   H7S15473   0.960   2.542   3.702 -1.2452 -1.5661  1.2746
  243POPC   C2815474   1.137   2.487   3.816  0.2612  0.2223 -0.2356
  243POPC   H8R15475   1.177   2.590   3.829  1.2975 -0.4992  3.1794
  243POPC   H8S15476   1.228   2.423   3.810  1.0433  1.3666 -1.1821
  243POPC   C2915477   1.069   2.454   3.944 -0.0155  0.0854 -0.2819
  243POPC   H9115478   1.086   2.351   3.979  1.1607 -0.1784 -1.5583
  243POPC  C21015479   0.994   2.539   4.023 -0.1804 -1.0195 -0.1830
  243POPC  H10115480   0.964   2.507   4.124  1.0062 -2.3912 -0.2382
  243POPC  C21115481   0.961   2.689   4.006 -0.5177 -0.1141  0.3483
  243POPC  H11R15482   0.854   2.705   4.032 -0.9976 -0.8065 -1.0952
  243POPC  H11S15483   0.972   2.717   3.900  0.7063 -0.5993  0.3294
  243POPC  C21215484   1.046   2.788   4.098 -0.6775 -0.0934  0.0706
  243POPC  H12R15485   1.010   2.887   4.064 -2.5941 -0.3694  1.1321
  243POPC  H12S15486   1.156   2.788   4.079 -0.5173  2.6747  0.6819
  243POPC  C21315487   1.009   2.770   4.252 -0.4777 -0.9717  0.5458
  243POPC  H13R15488   1.055   2.674   4.286 -2.2341 -1.4543  1.7367
  243POPC  H13S15489   0.899   2.760   4.266 -0.4329 -1.7707  0.3796
  243POPC  C21415490   1.073   2.878   4.345  0.6196  0.0515 -0.0733
  243POPC  H14R15491   1.033   2.978   4.316 -0.1714 -0.4309 -0.6993
  243POPC  H14S15492   1.176   2.865   4.306  1.5633 -0.6536  2.4933
  243POPC  C21515493   1.064   2.844   4.496  0.5983 -0.0081 -0.2865
  243POPC  H15R15494   1.103   2.743   4.520 -1.4379 -0.4917  1.1846
  243POPC  H15S15495   0.956   2.847   4.519  0.9752  0.7215  1.5346
  243POPC  C21615496   1.138   2.938   4.591 -0.5455  0.4210  0.1166
  243POPC  H16R15497   1.111   3.045   4.579  1.2335  1.3570  3.3297
  243POPC  H16S15498   1.248   2.932   4.577 -0.7028 -0.3776 -0.8454
  243POPC  C21715499   1.099   2.901   4.736 -0.0392  0.1460 -0.2712
  243POPC  H17R15500   0.992   2.870   4.745 -0.1004  0.4444  0.0605
  243POPC  H17S15501   1.107   2.998   4.789  0.5426  0.3849 -0.7961
  243POPC  C21815502   1.187   2.798   4.809  0.1408 -0.3280 -0.9926
  243POPC  H18R15503   1.167   2.785   4.918  0.7701  0.8539 -0.7179
  243POPC  H18S15504   1.291   2.836   4.797  1.1810 -1.7793  2.1141
  243POPC  H18T15505   1.182   2.700   4.758  2.3958 -1.1860  0.2721
  243POPC   C3315506   0.782   2.949   3.275  0.4433  0.3076 -0.5523
  243POPC   H3X15507   0.758   2.841   3.268  1.5821 -0.1673  1.8558
  243POPC   H3Y15508   0.729   2.991   3.187  0.6351 -0.2520 -0.9407
  243POPC   C3415509   0.743   3.018   3.408 -0.4518 -0.4071  0.0025
  243POPC   H4X15510   0.694   3.117   3.395 -2.3298 -1.0179  1.8037
  243POPC   H4Y15511   0.844   3.019   3.453 -0.6506  1.6363  0.4830
  243POPC   C3515512   0.657   2.937   3.495  0.0091 -0.2647  0.2838
  243POPC   H5X15513   0.578   2.900   3.427  0.5047 -0.7883 -0.0098
  243POPC   H5Y15514   0.604   3.003   3.567  2.2823 -0.9453  2.7367
  243POPC   C3615515   0.708   2.805   3.548  0.0602  0.4015 -0.1346
  243POPC   H6X15516   0.799   2.824   3.610 -0.3717 -0.2769  0.7283
  243POPC   H6Y15517   0.740   2.737   3.466  1.9344  0.7410  0.2706
  243POPC   C3715518   0.613   2.719   3.637 -0.2487  0.3495 -0.3479
  243POPC   H7X15519   0.525   2.689   3.576 -0.1711  1.0941 -0.8427
  243POPC   H7Y15520   0.575   2.785   3.718  0.1977  1.0471 -0.6942
  243POPC   C3815521   0.696   2.599   3.697 -0.4111 -0.4025 -0.4263
  243POPC   H8X15522   0.752   2.658   3.772 -0.9910  1.6870 -1.5357
  243POPC   H8Y15523   0.775   2.560   3.629 -0.0811  1.7646 -1.3642
  243POPC   C3915524   0.614   2.480   3.756 -1.1861 -0.9505  0.9911
  243POPC   H9X15525   0.522   2.453   3.699 -0.5423 -1.5854  0.2095
  243POPC   H9Y15526   0.571   2.504   3.855 -0.6541 -0.3006  1.0752
  243POPC  C31015527   0.705   2.355   3.763 -0.1507 -0.0211 -0.2995
  243POPC  H10X15528   0.805   2.378   3.806  1.1998 -0.3152 -3.0731
  243POPC  H10Y15529   0.741   2.329   3.662  0.7388  1.9727 -0.5266
  243POPC  C31115530   0.632   2.244   3.838  0.0192 -0.3709 -0.0810
  243POPC  H11X15531   0.535   2.214   3.793 -0.5682 -2.0771  2.1327
  243POPC  H11Y15532   0.619   2.266   3.947  2.0365 -2.4858  0.6632
  243POPC  C31215533   0.697   2.105   3.826  0.1440 -0.8336  0.2473
  243POPC  H12X15534   0.806   2.127   3.819  0.0934 -0.5682  0.2829
  243POPC  H12Y15535   0.681   2.060   3.726  1.7722  1.0582 -0.9407
  243POPC  C31315536   0.669   1.994   3.926  0.2920  0.0366 -0.0059
  243POPC  H13X15537   0.699   1.900   3.874  0.3540 -0.0004  0.0968
  243POPC  H13Y15538   0.561   1.977   3.941  0.5406 -0.5790  1.2100
  243POPC  C31415539   0.727   2.017   4.064  0.8748 -0.3210  0.5105
  243POPC  H14X15540   0.722   1.916   4.111  0.5399 -0.2043  0.7332
  243POPC  H14Y15541   0.662   2.093   4.113 -1.9623 -2.0839 -0.2624
  243POPC  C31515542   0.872   2.071   4.062  0.4602 -0.0719  0.5210
  243POPC  H15X15543   0.869   2.173   4.019  0.4046 -0.1388  0.3666
  243POPC  H15Y15544   0.928   2.006   3.991 -0.8425 -0.9913  0.2855
  243POPC  C31615545   0.942   2.074   4.195 -0.6694 -0.8904 -0.2789
  243POPC  H16X15546   1.040   2.126   4.182 -2.1286  2.1858  0.0122
  243POPC  H16Y15547   0.953   1.971   4.236 -1.7649 -0.6783  0.5864
  243POPC  H16Z15548   0.898   2.123   4.285  1.5909 -0.3513  0.6078
  244POPC     N15549   2.160   4.146   2.480 -0.8796 -0.2545 -0.0360
  244POPC   C1215550   2.033   4.170   2.554 -0.1171  0.1610 -0.4329
  244POPC  H12A15551   2.017   4.073   2.598  2.1782 -0.0166  0.1400
  244POPC  H12B15552   1.960   4.187   2.476 -0.6341  3.0803  0.5282
  244POPC   C1315553   2.258   4.084   2.580 -0.1580 -0.1299 -0.8281
  244POPC  H13A15554   2.264   4.139   2.673 -1.3836 -2.7999  0.9397
  244POPC  H13B15555   2.241   3.980   2.602  2.7418 -0.2507  1.4387
  244POPC  H13C15556   2.358   4.091   2.539  0.6892 -1.4138  0.9255
  244POPC   C1415557   2.146   4.058   2.360 -0.1447 -0.8539 -0.5807
  244POPC  H14A15558   2.076   3.980   2.384  0.3654 -1.2401 -0.3071
  244POPC  H14B15559   2.113   4.104   2.268  0.7424 -3.3388 -2.2609
  244POPC  H14C15560   2.238   4.011   2.326 -0.3301 -0.2354 -2.0247
  244POPC   C1515561   2.205   4.283   2.429  0.3629  0.2518 -0.1997
  244POPC  H15A15562   2.150   4.301   2.337  0.0007 -1.3709 -0.3410
  244POPC  H15B15563   2.309   4.280   2.399  0.2890 -1.6377 -0.4133
  244POPC  H15C15564   2.186   4.367   2.494 -1.8522  0.1733 -0.6584
  244POPC   C1115565   2.020   4.279   2.663  0.5422  0.0406  0.3041
  244POPC  H11A15566   1.913   4.283   2.694 -0.4298  2.9480 -2.7734
  244POPC  H11B15567   2.038   4.370   2.602  0.7946 -0.4649 -0.3868
  244POPC     P15568   2.077   4.201   2.900 -0.0202  0.0249  0.1849
  244POPC   O1315569   2.194   4.212   2.993 -0.3555 -0.2377  0.3503
  244POPC   O1415570   2.027   4.070   2.865 -0.4936 -0.0388  0.1510
  244POPC   O1215571   2.113   4.276   2.766 -0.1044 -0.3254 -0.3267
  244POPC   O1115572   1.963   4.293   2.953  0.4335  0.5124 -0.7606
  244POPC    C115573   1.858   4.236   3.035 -0.3892  0.1075  0.4403
  244POPC    HA15574   1.855   4.125   3.035  1.3374  0.0201 -1.0597
  244POPC    HB15575   1.759   4.266   2.994 -0.1868 -1.3829 -1.2955
  244POPC    C215576   1.867   4.283   3.181  0.6289 -0.9539 -0.3506
  244POPC    HS15577   1.871   4.393   3.170  2.9350 -0.8859  0.6832
  244POPC   O2115578   1.983   4.231   3.237 -0.2182 -0.2955 -0.4255
  244POPC   C2115579   2.093   4.306   3.261  0.5205 -0.4228 -0.5772
  244POPC   O2215580   2.106   4.423   3.243  0.0885  0.9292 -0.1597
  244POPC   C2215581   2.206   4.214   3.310  0.5085 -0.3727  0.6169
  244POPC   H2R15582   2.297   4.270   3.279  0.5783 -0.5038  0.5878
  244POPC   H2S15583   2.206   4.128   3.241 -0.0195  1.3591 -1.6724
  244POPC    C315584   1.749   4.253   3.272  0.9290 -0.7024  0.8832
  244POPC    HX15585   1.762   4.146   3.299  0.3665 -0.7548  0.9488
  244POPC    HY15586   1.651   4.258   3.220  1.1605  1.8627  0.5460
  244POPC   O3115587   1.747   4.329   3.392  0.3539 -0.2941  0.6507
  244POPC   C3115588   1.672   4.444   3.394  0.1648 -0.1113 -0.2645
  244POPC   O3215589   1.606   4.478   3.299  0.0367 -0.0171 -0.2857
  244POPC   C3215590   1.685   4.509   3.540 -0.2707  0.2082  0.0508
  244POPC   H2X15591   1.669   4.430   3.616 -0.7639  0.7109  0.4820
  244POPC   H2Y15592   1.606   4.587   3.541 -0.8252 -0.3500  1.2248
  244POPC   C2315593   2.206   4.186   3.464  0.4096 -0.1545  0.2381
  244POPC   H3R15594   2.165   4.279   3.509  0.9579 -0.0178  0.4627
  244POPC   H3S15595   2.307   4.174   3.507 -0.1967 -2.6046  1.1326
  244POPC   C2415596   2.122   4.066   3.495 -0.0973  0.2597 -0.0714
  244POPC   H4R15597   2.162   3.965   3.471 -2.0362 -0.4058 -0.7115
  244POPC   H4S15598   2.036   4.072   3.425  1.1557 -1.7418 -1.9571
  244POPC   C2515599   2.075   4.057   3.644  0.4152 -0.1327  0.8785
  244POPC   H5R15600   2.046   4.154   3.689  0.1522 -0.4797  1.4679
  244POPC   H5S15601   2.161   4.021   3.704  0.7493 -0.3333  0.2926
  244POPC   C2615602   1.964   3.958   3.655 -0.0171  0.5477  0.9601
  244POPC   H6R15603   1.974   3.919   3.759  0.0502 -1.1874  0.3245
  244POPC   H6S15604   1.987   3.872   3.590  1.6003  0.8472  1.0953
  244POPC   C2715605   1.819   3.997   3.637 -0.3122 -0.9741 -0.0833
  244POPC   H7R15606   1.804   4.030   3.532  0.0047 -1.5289 -0.3090
  244POPC   H7S15607   1.797   4.085   3.702 -0.4291  0.8805 -2.5109
  244POPC   C2815608   1.708   3.891   3.671 -0.8498 -0.7372  0.0614
  244POPC   H8R15609   1.735   3.864   3.775  0.7625  0.0162 -0.1232
  244POPC   H8S15610   1.726   3.796   3.616  0.3372 -0.4767 -0.0438
  244POPC   C2915611   1.571   3.938   3.661  0.3515  0.0054  0.3452
  244POPC   H9115612   1.519   3.906   3.569  2.3523 -0.4478 -0.6872
  244POPC  C21015613   1.508   3.997   3.766 -0.3164  0.0140  0.2347
  244POPC  H10115614   1.400   4.009   3.752 -0.4554 -0.8101  0.5571
  244POPC  C21115615   1.562   4.048   3.899 -0.3777 -1.1670  0.2484
  244POPC  H11R15616   1.554   4.159   3.895 -0.0234 -1.0889  1.4154
  244POPC  H11S15617   1.666   4.012   3.912 -0.0643 -0.0391  0.9976
  244POPC  C21215618   1.492   3.986   4.020  0.3763  0.4152 -0.6603
  244POPC  H12R15619   1.491   3.875   4.021 -0.6626  0.3475 -2.6515
  244POPC  H12S15620   1.387   4.022   4.023  0.2009 -0.1538  1.1722
  244POPC  C21315621   1.556   4.033   4.152 -0.1055 -0.6856 -0.3469
  244POPC  H13R15622   1.566   4.143   4.146 -1.8693 -0.1980  3.1204
  244POPC  H13S15623   1.658   3.990   4.146 -0.0843 -0.8284  0.8488
  244POPC  C21415624   1.495   3.978   4.277  1.0938 -0.0360  0.3548
  244POPC  H14R15625   1.501   3.867   4.275  2.0474  0.0120 -0.9657
  244POPC  H14S15626   1.386   3.994   4.286  1.2611 -0.0347  4.1427
  244POPC  C21515627   1.545   4.060   4.404 -0.1178 -0.0619  1.5782
  244POPC  H15R15628   1.480   4.041   4.492 -4.9611 -0.3436 -1.6836
  244POPC  H15S15629   1.535   4.165   4.368  0.3341  0.0401  1.7505
  244POPC  C21615630   1.699   4.035   4.445  0.5852  0.2068  0.6283
  244POPC  H16R15631   1.766   4.026   4.357 -0.9348 -0.7681 -0.4771
  244POPC  H16S15632   1.696   3.940   4.502 -2.3276  0.8111  1.6610
  244POPC  C21715633   1.757   4.142   4.536  0.0034  0.2615  0.0404
  244POPC  H17R15634   1.703   4.137   4.633 -1.6512 -1.0254 -0.9064
  244POPC  H17S15635   1.729   4.233   4.479 -0.6773 -1.8898 -3.3483
  244POPC  C21815636   1.903   4.135   4.565  0.1868  0.1518  0.2293
  244POPC  H18R15637   1.958   4.141   4.468  0.0311 -1.9201 -0.0248
  244POPC  H18S15638   1.923   4.037   4.612 -2.5491 -0.0293  1.1830
  244POPC  H18T15639   1.924   4.222   4.632 -2.4206  0.1209  1.2081
  244POPC   C3315640   1.822   4.586   3.555  0.0204 -0.1695  0.1284
  244POPC   H3X15641   1.831   4.672   3.485  1.5736  1.8317  2.6079
  244POPC   H3Y15642   1.899   4.509   3.531 -1.6071 -1.3709 -1.5529
  244POPC   C3415643   1.857   4.650   3.687 -0.6306  0.8000 -0.6753
  244POPC   H4X15644   1.965   4.675   3.690 -0.5413  0.5291 -1.4084
  244POPC   H4Y15645   1.834   4.573   3.763  0.8657  0.3734 -0.6348
  244POPC   C3515646   1.784   4.786   3.708  0.0647 -0.1079  0.1279
  244POPC   H5X15647   1.675   4.765   3.709  0.0664 -0.2786 -1.2705
  244POPC   H5Y15648   1.795   4.848   3.615  2.5391 -0.8661 -0.1690
  244POPC   C3615649   1.839   4.873   3.823 -1.0353  0.0173  0.5442
  244POPC   H6X15650   1.776   4.964   3.831 -0.1797  0.8245 -1.3329
  244POPC   H6Y15651   1.941   4.909   3.801 -0.5452 -0.2265  2.2566
  244POPC   C3715652   1.847   4.813   3.959  0.5591  0.0486  0.4787
  244POPC   H7X15653   1.949   4.821   4.001  0.7948 -0.2546 -0.0197
  244POPC   H7Y15654   1.815   4.707   3.947  3.0575 -0.9273  1.7543
  244POPC   C3815655   1.762   4.882   4.066  0.3121 -0.4127 -0.4206
  244POPC   H8X15656   1.665   4.908   4.019  1.0231  0.0535 -1.6838
  244POPC   H8Y15657   1.801   4.983   4.091 -1.1412 -0.3714  1.9480
  244POPC   C3915658   1.742   4.811   4.206 -0.7114  0.1662  0.0165
  244POPC   H9X15659   1.837   4.768   4.244 -1.7680 -1.3350  1.0643
  244POPC   H9Y15660   1.690   4.719   4.174  0.1004 -0.6366  0.9356
  244POPC  C31015661   1.667   4.888   4.314 -0.2013  0.2055  0.3562
  244POPC  H10X15662   1.646   4.834   4.409 -2.5020  1.3344  0.5405
  244POPC  H10Y15663   1.566   4.910   4.274 -0.0517 -1.9245 -1.4011
  244POPC  C31115664   1.716   5.026   4.339 -0.1046  0.1344 -0.4395
  244POPC  H11X15665   1.649   5.074   4.414  1.3187  1.0323  0.2861
  244POPC  H11Y15666   1.710   5.084   4.244  1.0301 -1.1860 -1.3458
  244POPC  C31215667   1.852   5.025   4.409 -0.2145 -0.5221  0.6972
  244POPC  H12X15668   1.919   4.943   4.375 -1.8925 -1.4492 -0.5246
  244POPC  H12Y15669   1.832   5.015   4.518 -0.2073  1.2398  0.8967
  244POPC  C31315670   1.928   5.161   4.379  0.2067  0.6455 -0.5428
  244POPC  H13X15671   1.863   5.251   4.376 -0.9563 -0.1808 -0.7905
  244POPC  H13Y15672   1.965   5.145   4.275  0.2592 -1.7215 -0.2059
  244POPC  C31415673   2.056   5.174   4.469  0.3030  0.3891 -0.3902
  244POPC  H14X15674   2.142   5.137   4.409  1.4983  1.6782  0.4584
  244POPC  H14Y15675   2.036   5.106   4.555  0.9778 -0.2961 -0.7657
  244POPC  C31515676   2.085   5.319   4.509  0.2934  0.5116 -0.5584
  244POPC  H15X15677   2.085   5.386   4.420 -1.2661  0.2062 -0.8050
  244POPC  H15Y15678   2.188   5.327   4.550 -0.3181  1.5143  0.8772
  244POPC  C31615679   1.986   5.370   4.615  0.3847  0.0142  0.8752
  244POPC  H16X15680   1.981   5.303   4.704 -1.1788 -0.1982  0.6650
  244POPC  H16Y15681   1.881   5.358   4.579  0.4588 -1.9425  1.2205
  244POPC  H16Z15682   2.003   5.475   4.647  0.1549  0.3511 -0.0918
  245POPC     N15683   3.442   1.308   3.154 -0.5637 -0.5322  0.2735
  245POPC   C1215684   3.572   1.382   3.115 -0.0267  0.1398 -0.0075
  245POPC  H12A15685   3.655   1.351   3.178 -0.7378  0.4420  1.1025
  245POPC  H12B15686   3.556   1.483   3.149 -0.2898  0.0859  0.0261
  245POPC   C1315687   3.333   1.355   3.071 -0.3864  0.3175 -0.6197
  245POPC  H13A15688   3.360   1.360   2.966  0.7780 -2.1316 -0.4888
  245POPC  H13B15689   3.246   1.294   3.085  0.1059  0.1060  2.0302
  245POPC  H13C15690   3.300   1.455   3.095  0.8297  0.6956 -0.4260
  245POPC   C1415691   3.463   1.162   3.136 -0.4304  0.2526 -0.0048
  245POPC  H14A15692   3.549   1.123   3.188  1.1395  0.0145 -2.5681
  245POPC  H14B15693   3.379   1.109   3.179  1.6141 -2.8770  0.4799
  245POPC  H14C15694   3.477   1.151   3.029  0.5015  0.0803  0.1298
  245POPC   C1515695   3.419   1.343   3.299  0.3839  0.0343 -0.0626
  245POPC  H15A15696   3.483   1.279   3.359 -1.4160 -0.4329  1.4369
  245POPC  H15B15697   3.315   1.325   3.318  0.0317  2.2546  0.4985
  245POPC  H15C15698   3.447   1.442   3.334  0.7414  0.8461 -2.4533
  245POPC   C1115699   3.622   1.372   2.962 -0.2378 -0.6195  0.3664
  245POPC  H11A15700   3.612   1.274   2.911 -0.7481  0.4862 -1.7848
  245POPC  H11B15701   3.731   1.390   2.956 -0.3134 -0.1251  0.4744
  245POPC     P15702   3.537   1.623   2.915  0.1242  0.5980 -0.3838
  245POPC   O1315703   3.439   1.662   3.025 -0.1718 -0.0416  0.9141
  245POPC   O1415704   3.517   1.691   2.781 -0.5263  0.1405  0.2082
  245POPC   O1215705   3.536   1.466   2.888  0.0759  0.3716  0.5434
  245POPC   O1115706   3.683   1.658   2.971 -0.2965  0.1406  0.4862
  245POPC    C115707   3.704   1.770   3.048  0.8632 -0.2244  0.0386
  245POPC    HA15708   3.615   1.836   3.058  0.4420 -0.8041  0.2210
  245POPC    HB15709   3.774   1.843   3.003 -0.0904  1.3565  1.0206
  245POPC    C215710   3.763   1.735   3.186 -0.2040 -0.3048  0.1400
  245POPC    HS15711   3.852   1.801   3.197  0.5663 -1.0051 -1.5538
  245POPC   O2115712   3.811   1.597   3.192 -0.4405 -0.2429 -0.2896
  245POPC   C2115713   3.932   1.590   3.134 -0.0967 -0.0593  0.3416
  245POPC   O2215714   3.988   1.683   3.084 -0.1881 -0.3611 -0.4449
  245POPC   C2215715   3.997   1.452   3.152 -0.2734 -0.0587  0.2933
  245POPC   H2R15716   4.105   1.458   3.127 -0.3820 -1.6333 -0.6674
  245POPC   H2S15717   3.943   1.381   3.086  0.5552 -0.0994 -0.3640
  245POPC    C315718   3.664   1.766   3.300  0.7115 -0.0385 -0.1753
  245POPC    HX15719   3.560   1.726   3.297 -0.3351  2.3457  1.4250
  245POPC    HY15720   3.662   1.877   3.310  1.4784 -0.2229  3.6948
  245POPC   O3115721   3.722   1.724   3.425  0.7907  0.9562 -0.0214
  245POPC   C3115722   3.711   1.600   3.456 -0.0706  0.8544  0.1083
  245POPC   O3215723   3.636   1.518   3.404 -0.2885 -0.2314 -0.1765
  245POPC   C3215724   3.786   1.561   3.581  0.2709  0.1612 -0.1822
  245POPC   H2X15725   3.805   1.656   3.636  0.9542 -0.5853  0.9191
  245POPC   H2Y15726   3.887   1.519   3.557  0.0461 -0.3120 -0.3168
  245POPC   C2315727   3.970   1.399   3.298 -0.1479  0.1459  0.1880
  245POPC   H3R15728   3.863   1.372   3.296 -0.0491 -0.2368 -0.0607
  245POPC   H3S15729   4.002   1.473   3.376  0.7462 -0.3821  0.3399
  245POPC   C2415730   4.042   1.264   3.322 -0.1238  0.7809 -1.0416
  245POPC   H4R15731   4.151   1.279   3.310 -0.1439  2.0681  0.0716
  245POPC   H4S15732   4.008   1.196   3.241  1.3577 -1.1662 -0.0818
  245POPC   C2515733   4.023   1.227   3.472  0.5770 -0.6751 -0.1063
  245POPC   H5R15734   3.915   1.216   3.498  0.5842 -4.2986 -1.0847
  245POPC   H5S15735   4.057   1.322   3.519 -0.4063  1.4836 -3.3685
  245POPC   C2615736   4.111   1.115   3.526  0.3122 -0.0883  0.4575
  245POPC   H6R15737   4.215   1.130   3.490  0.2830 -0.4470  0.2153
  245POPC   H6S15738   4.071   1.016   3.494  1.6305 -0.3568 -0.4783
  245POPC   C2715739   4.121   1.112   3.679 -0.5100 -0.1829  0.9949
  245POPC   H7R15740   4.155   1.010   3.709  1.2463  0.7426  2.2766
  245POPC   H7S15741   4.021   1.122   3.727 -1.1079  0.2834 -0.2843
  245POPC   C2815742   4.215   1.217   3.748  0.0568  0.2942  0.1874
  245POPC   H8R15743   4.167   1.241   3.845  0.6679 -0.0289  0.5730
  245POPC   H8S15744   4.211   1.311   3.688  1.9351  1.0627  1.1892
  245POPC   C2915745   4.356   1.160   3.748 -0.2475  0.1954  0.0008
  245POPC   H9115746   4.368   1.108   3.651 -2.4109 -0.8654  0.2571
  245POPC  C21015747   4.452   1.175   3.840  0.6655 -0.0404  0.2568
  245POPC  H10115748   4.550   1.127   3.824  0.6869  0.0954 -0.0426
  245POPC  C21115749   4.433   1.240   3.970  0.5456  0.4305 -0.8669
  245POPC  H11R15750   4.354   1.318   3.964  2.9237  2.9869 -0.6466
  245POPC  H11S15751   4.530   1.286   3.998  2.0171  0.0381 -4.6515
  245POPC  C21215752   4.386   1.118   4.055 -0.8424  0.1570 -0.0305
  245POPC  H12R15753   4.463   1.037   4.060  0.1524  1.1366  1.2518
  245POPC  H12S15754   4.289   1.082   4.014 -2.7280  4.6064  0.0175
  245POPC  C21315755   4.360   1.162   4.203 -0.0218 -0.5513  0.3124
  245POPC  H13R15756   4.304   1.087   4.263 -1.3371  0.2565  0.1279
  245POPC  H13S15757   4.288   1.246   4.195 -0.9772 -1.3096  0.7491
  245POPC  C21415758   4.492   1.202   4.278  0.1825  0.2625  0.2173
  245POPC  H14R15759   4.516   1.306   4.248  1.9915 -1.0885 -3.7389
  245POPC  H14S15760   4.578   1.139   4.247  0.7447  1.6594 -1.1930
  245POPC  C21515761   4.469   1.209   4.435 -0.3048 -0.6903  0.0405
  245POPC  H15R15762   4.568   1.238   4.475 -0.3674 -0.1423 -0.2004
  245POPC  H15S15763   4.433   1.110   4.471  0.4027 -1.2455 -0.7422
  245POPC  C21615764   4.359   1.311   4.465 -0.0943  0.1062  0.4558
  245POPC  H16R15765   4.264   1.260   4.438 -0.1246  0.6334 -0.4693
  245POPC  H16S15766   4.380   1.398   4.400  0.8173 -0.6050 -0.2182
  245POPC  C21715767   4.357   1.369   4.603  0.1355  0.5448 -0.2065
  245POPC  H17R15768   4.353   1.275   4.663  2.2453  0.9061  0.5984
  245POPC  H17S15769   4.264   1.427   4.622 -0.1643 -0.2765  0.9352
  245POPC  C21815770   4.469   1.459   4.660 -0.5993  0.2568  0.1568
  245POPC  H18R15771   4.564   1.402   4.666 -1.7141 -1.8359 -1.0078
  245POPC  H18S15772   4.450   1.503   4.761  1.5169  3.9879 -0.8746
  245POPC  H18T15773   4.493   1.548   4.598 -0.5267 -0.4827 -0.8930
  245POPC   C3315774   3.712   1.453   3.667  0.4885 -0.0845  0.2097
  245POPC   H3X15775   3.698   1.363   3.603  0.7692  0.2065 -0.2689
  245POPC   H3Y15776   3.609   1.481   3.699  1.1609  0.9374  1.5867
  245POPC   C3415777   3.799   1.404   3.785  0.6958  0.5326  0.0072
  245POPC   H4X15778   3.830   1.492   3.845 -0.8139 -0.3535  2.2064
  245POPC   H4Y15779   3.888   1.350   3.748  2.8672  0.8166  4.2597
  245POPC   C3515780   3.726   1.302   3.877 -0.1081 -0.3265 -0.7107
  245POPC   H5X15781   3.693   1.211   3.822  1.9613 -0.1984 -2.3023
  245POPC   H5Y15782   3.630   1.340   3.917  0.6835  0.5674  0.4138
  245POPC   C3615783   3.820   1.256   3.993 -0.0402  0.8012 -0.9723
  245POPC   H6X15784   3.926   1.242   3.963  0.2882  1.2022 -0.0447
  245POPC   H6Y15785   3.792   1.157   4.036  1.6292  0.6909 -0.0725
  245POPC   C3715786   3.812   1.356   4.108  0.4439  0.0611  0.3708
  245POPC   H7X15787   3.704   1.353   4.133  0.3880 -1.7232  0.0196
  245POPC   H7Y15788   3.839   1.459   4.076  1.1731 -0.7237 -1.6566
  245POPC   C3815789   3.900   1.319   4.221  0.9064  0.4022  0.6736
  245POPC   H8X15790   4.008   1.317   4.195  1.1922  0.9118  1.7755
  245POPC   H8Y15791   3.866   1.216   4.244 -0.4680  0.7715  0.4336
  245POPC   C3915792   3.873   1.402   4.342 -0.0884  0.7438  0.2380
  245POPC   H9X15793   3.769   1.440   4.342  0.1621  1.5012 -1.6267
  245POPC   H9Y15794   3.945   1.485   4.358  1.0668 -0.1355 -0.2347
  245POPC  C31015795   3.877   1.315   4.471  0.5643 -0.9331  0.0236
  245POPC  H10X15796   3.983   1.287   4.489 -0.3759 -4.2953  1.0528
  245POPC  H10Y15797   3.824   1.220   4.451  1.8745 -1.5349 -0.6954
  245POPC  C31115798   3.814   1.387   4.590 -0.0121  0.8838  0.1884
  245POPC  H11X15799   3.705   1.404   4.573 -0.1082  0.3783  0.2868
  245POPC  H11Y15800   3.866   1.485   4.590  0.4429  0.6462 -0.5328
  245POPC  C31215801   3.820   1.321   4.730 -0.2030 -0.0421 -0.1005
  245POPC  H12X15802   3.927   1.300   4.751 -0.3370 -0.7711 -0.1234
  245POPC  H12Y15803   3.767   1.225   4.717  0.8083 -0.5129 -0.8953
  245POPC  C31315804   3.739   1.404   4.835  0.1488 -0.0188 -0.7105
  245POPC  H13X15805   3.635   1.432   4.808 -0.0506 -1.5583 -1.6373
  245POPC  H13Y15806   3.791   1.502   4.828 -4.1095  2.4252 -1.8217
  245POPC  C31415807   3.739   1.338   4.969 -0.4495 -0.3904  0.1224
  245POPC  H14X15808   3.668   1.396   5.031 -1.0441 -0.4131 -0.5311
  245POPC  H14Y15809   3.838   1.342   5.020  0.6426  0.5238 -1.9115
  245POPC  C31515810   3.699   1.186   4.968  0.6247  0.1565  0.8288
  245POPC  H15X15811   3.786   1.129   4.930  0.1693  0.7469 -1.2377
  245POPC  H15Y15812   3.616   1.185   4.894 -0.9074  3.5062  2.2411
  245POPC  C31615813   3.658   1.132   5.108 -0.9146  0.1230  0.8484
  245POPC  H16X15814   3.594   1.213   5.150 -1.1456  2.4635 -3.4772
  245POPC  H16Y15815   3.752   1.129   5.167  1.1363  2.1562 -2.0613
  245POPC  H16Z15816   3.605   1.035   5.099  0.5244 -0.6025 -0.1120
  246POPC     N15817   5.215   5.453   2.517 -0.0469  0.4356  0.2688
  246POPC   C1215818   5.342   5.516   2.453 -0.2594 -0.2567 -0.0433
  246POPC  H12A15819   5.357   5.610   2.504  2.1225  0.1061 -1.2409
  246POPC  H12B15820   5.334   5.543   2.349  5.7048  0.3561 -0.7043
  246POPC   C1315821   5.193   5.317   2.460  1.1619 -0.1612 -0.4000
  246POPC  H13A15822   5.118   5.258   2.510  1.4459 -1.2482 -1.2263
  246POPC  H13B15823   5.159   5.331   2.359  0.5606 -2.1865 -0.5198
  246POPC  H13C15824   5.287   5.264   2.463 -0.1926 -2.7218 -0.3467
  246POPC   C1415825   5.218   5.447   2.664 -0.0851 -0.2502  0.0486
  246POPC  H14A15826   5.233   5.546   2.704  0.9748  0.8436 -2.8034
  246POPC  H14B15827   5.125   5.417   2.711 -1.5486  3.1840 -0.3539
  246POPC  H14C15828   5.298   5.381   2.693  0.7797  0.6452 -0.2658
  246POPC   C1515829   5.097   5.537   2.476  1.1454  0.1610  0.7168
  246POPC  H15A15830   5.109   5.570   2.374  2.4068  1.7997  1.3475
  246POPC  H15B15831   5.088   5.628   2.535  1.4131  0.3591  0.4519
  246POPC  H15C15832   5.002   5.489   2.493  0.6487  0.0637 -1.9821
  246POPC   C1115833   5.477   5.446   2.469  0.2740  1.4587  0.0225
  246POPC  H11A15834   5.554   5.514   2.427  0.3458  1.6138  0.4054
  246POPC  H11B15835   5.486   5.354   2.407  0.0457 -0.8949  3.2447
  246POPC     P15836   5.588   5.504   2.702  0.0641 -0.5073 -0.2222
  246POPC   O1315837   5.511   5.624   2.730 -0.5557  0.2734 -0.4345
  246POPC   O1415838   5.722   5.526   2.649 -0.2415  0.6942 -0.4808
  246POPC   O1215839   5.507   5.416   2.601  0.5430 -0.1672 -0.0945
  246POPC   O1115840   5.602   5.409   2.832 -0.5296  0.1799  0.0713
  246POPC    C115841   5.496   5.360   2.905 -0.0148 -0.4455 -0.0452
  246POPC    HA15842   5.512   5.253   2.932  1.8042  0.2643  1.9485
  246POPC    HB15843   5.402   5.357   2.846  0.3960 -0.9031 -0.6878
  246POPC    C215844   5.486   5.421   3.052 -0.0720  0.3089  0.2961
  246POPC    HS15845   5.404   5.375   3.112  0.7510 -0.3679  0.9303
  246POPC   O2115846   5.474   5.562   3.058  0.0178 -0.0546 -0.1903
  246POPC   C2115847   5.347   5.597   3.016  0.1216  0.7533  0.4255
  246POPC   O2215848   5.263   5.518   2.985 -0.6127 -0.2587 -0.4491
  246POPC   C2215849   5.337   5.749   3.017  0.9469 -0.0519 -0.0887
  246POPC   H2R15850   5.247   5.772   2.955 -0.9213 -0.7387  2.1966
  246POPC   H2S15851   5.426   5.796   2.971  1.1907  0.3399  0.7553
  246POPC    C315852   5.617   5.384   3.127  0.4463 -0.6215 -0.1501
  246POPC    HX15853   5.700   5.442   3.080 -0.3390  0.1772 -0.5727
  246POPC    HY15854   5.636   5.277   3.105  0.3379 -0.0208 -3.7215
  246POPC   O3115855   5.615   5.415   3.267 -0.3664 -0.2802 -0.3221
  246POPC   C3115856   5.540   5.343   3.343  0.5988 -0.7657 -0.4238
  246POPC   O3215857   5.477   5.244   3.315 -0.4026  0.4702 -0.0472
  246POPC   C3215858   5.524   5.414   3.476  0.4580  0.5427  0.6969
  246POPC   H2X15859   5.619   5.465   3.504  1.0208 -0.9943  1.7550
  246POPC   H2Y15860   5.504   5.337   3.553  2.5038 -0.6783  0.0877
  246POPC   C2315861   5.332   5.816   3.157  0.6956  0.4331 -0.3898
  246POPC   H3R15862   5.330   5.927   3.142  1.0695  0.8656  2.3363
  246POPC   H3S15863   5.421   5.797   3.220  1.5857  2.0602 -1.0644
  246POPC   C2415864   5.190   5.795   3.219 -0.5041  0.0012  0.0649
  246POPC   H4R15865   5.167   5.686   3.221 -1.7909  0.2573  0.6710
  246POPC   H4S15866   5.117   5.846   3.153  0.1309  0.8551  0.0151
  246POPC   C2515867   5.180   5.852   3.359  0.4059  0.3309 -0.0973
  246POPC   H5R15868   5.209   5.959   3.357  1.5429  0.0958  1.4734
  246POPC   H5S15869   5.252   5.804   3.429 -1.5341 -2.0505  0.4462
  246POPC   C2615870   5.042   5.843   3.425 -0.3485  0.3160  0.2312
  246POPC   H6R15871   4.999   5.741   3.442  0.2793  0.3190  2.0812
  246POPC   H6S15872   4.977   5.890   3.349  0.4461  3.2721  1.2579
  246POPC   C2715873   5.038   5.906   3.561 -0.3584 -0.0367 -0.5914
  246POPC   H7R15874   5.062   6.010   3.531  3.8600 -0.6182  0.2210
  246POPC   H7S15875   5.114   5.865   3.631 -0.2590  0.9852 -0.0801
  246POPC   C2815876   4.902   5.881   3.632  0.3022  0.0959  0.6822
  246POPC   H8R15877   4.870   5.775   3.633 -3.8098  1.1809  1.5214
  246POPC   H8S15878   4.816   5.930   3.580 -0.7814 -2.8339 -0.4892
  246POPC   C2915879   4.910   5.930   3.772 -0.4230 -0.6804  0.7637
  246POPC   H9115880   4.994   5.889   3.830  0.5358 -2.0394 -1.4362
  246POPC  C21015881   4.835   6.023   3.835  0.5804 -0.0192  0.3649
  246POPC  H10115882   4.860   6.066   3.933  0.5080  1.3702 -0.2034
  246POPC  C21115883   4.716   6.091   3.771  0.3200 -0.0273  0.5011
  246POPC  H11R15884   4.627   6.066   3.833 -0.0347  0.7129  0.3036
  246POPC  H11S15885   4.697   6.074   3.663 -0.6508  1.2442  0.4397
  246POPC  C21215886   4.727   6.239   3.791  0.0423 -0.4163  0.5211
  246POPC  H12R15887   4.767   6.289   3.882 -1.9054  1.6114  0.3458
  246POPC  H12S15888   4.620   6.270   3.792  0.0948 -0.1535 -0.6901
  246POPC  C21315889   4.784   6.323   3.672 -0.0674 -0.3711  0.8718
  246POPC  H13R15890   4.765   6.428   3.703  1.0550 -0.7859  3.1721
  246POPC  H13S15891   4.718   6.306   3.585  0.4094  1.9562 -0.0214
  246POPC  C21415892   4.930   6.308   3.645 -0.0956 -0.5501  0.2291
  246POPC  H14R15893   4.942   6.208   3.597 -0.5116 -1.5143  2.0342
  246POPC  H14S15894   4.974   6.291   3.746 -2.0546  0.0689  1.2252
  246POPC  C21515895   4.999  -0.010   3.590 -0.0169 -0.3636 -0.4514
  246POPC  H15R15896   4.989   0.074   3.663  1.0235 -1.3948  0.9269
  246POPC  H15S15897   4.950   0.032   3.499  4.6494  3.6523 -1.5328
  246POPC  C21615898   5.152   6.413   3.556  0.3276 -0.2756 -0.4897
  246POPC  H16R15899   5.151   6.321   3.493 -0.2260  0.7303 -2.0081
  246POPC  H16S15900   5.215   6.392   3.645 -2.9530 -2.1158  1.6180
  246POPC  C21715901   5.225   0.088   3.493 -0.2329 -0.2869  0.4067
  246POPC  H17R15902   5.334   0.066   3.491 -0.3331 -0.8030 -1.7300
  246POPC  H17S15903   5.204   0.179   3.552 -0.2049  0.3508 -0.5427
  246POPC  C21815904   5.191   0.106   3.345  0.0594  0.7714 -0.5098
  246POPC  H18R15905   5.186   0.006   3.296 -0.1197  1.0302 -1.0252
  246POPC  H18S15906   5.268   0.162   3.288  0.5333 -0.0035 -0.6498
  246POPC  H18T15907   5.097   0.162   3.323 -0.3955 -0.6673 -2.5734
  246POPC   C3315908   5.417   5.527   3.481  0.0190  0.3036 -0.0958
  246POPC   H3X15909   5.319   5.476   3.490  0.0648  0.0210 -1.0814
  246POPC   H3Y15910   5.407   5.595   3.394 -0.5839  0.2114 -0.1014
  246POPC   C3415911   5.427   5.614   3.613 -0.0857 -0.1637 -0.1301
  246POPC   H4X15912   5.338   5.681   3.617  0.9262  1.1672  1.3094
  246POPC   H4Y15913   5.520   5.674   3.608 -1.2122  2.2721  3.6646
  246POPC   C3515914   5.420   5.535   3.745 -0.6387 -0.2538  0.5542
  246POPC   H5X15915   5.496   5.455   3.753 -2.1866 -1.7192  1.0880
  246POPC   H5Y15916   5.330   5.470   3.739  0.6655 -2.1142  0.3092
  246POPC   C3615917   5.428   5.616   3.870  0.5393  0.1600  0.1726
  246POPC   H6X15918   5.334   5.675   3.876  0.0720 -0.6392  0.8855
  246POPC   H6Y15919   5.515   5.685   3.868 -0.6733  1.7524  0.0486
  246POPC   C3715920   5.428   5.529   3.996 -0.7892  0.1651  0.6847
  246POPC   H7X15921   5.509   5.453   3.988 -1.3274 -0.6113  2.2217
  246POPC   H7Y15922   5.330   5.477   4.011 -0.4304 -0.8012 -0.1514
  246POPC   C3815923   5.469   5.611   4.119 -0.5205 -0.2737 -0.2330
  246POPC   H8X15924   5.549   5.681   4.088  1.3850 -1.0545  2.5612
  246POPC   H8Y15925   5.524   5.553   4.196  0.6228  1.2783  0.1700
  246POPC   C3915926   5.355   5.679   4.183 -0.4391  0.4567 -0.3013
  246POPC   H9X15927   5.290   5.605   4.235  0.7514  2.3156  4.3418
  246POPC   H9Y15928   5.305   5.737   4.102 -1.0926 -1.0480 -1.0115
  246POPC  C31015929   5.399   5.783   4.287  0.4518  0.3559 -0.4748
  246POPC  H10X15930   5.443   5.870   4.233 -0.4707  1.2845  0.2323
  246POPC  H10Y15931   5.471   5.739   4.359  0.4433 -0.5170 -0.9738
  246POPC  C31115932   5.278   5.839   4.370  0.0642  0.2450  0.1654
  246POPC  H11X15933   5.228   5.746   4.405 -0.3755 -0.8226 -3.0017
  246POPC  H11Y15934   5.212   5.879   4.290  0.7975 -0.4232 -0.7984
  246POPC  C31215935   5.323   5.934   4.472 -0.7055  0.1974 -0.6855
  246POPC  H12X15936   5.387   6.013   4.428 -0.8064  0.9657  0.4888
  246POPC  H12Y15937   5.371   5.878   4.555  1.7869  2.2457 -0.6202
  246POPC  C31315938   5.214   6.017   4.542  0.3968  0.2505 -0.2871
  246POPC  H13X15939   5.165   6.100   4.487 -0.0612  1.3144  1.6505
  246POPC  H13Y15940   5.270   6.068   4.623 -0.9521 -0.7721  1.3409
  246POPC  C31415941   5.111   5.919   4.608 -0.1577 -0.4368 -0.1907
  246POPC  H14X15942   5.168   5.859   4.681 -1.3177 -1.8048 -0.3778
  246POPC  H14Y15943   5.078   5.843   4.534 -0.8788 -0.9581  0.6496
  246POPC  C31515944   4.989   5.989   4.665 -0.5692 -0.2188  0.4188
  246POPC  H15X15945   4.934   6.037   4.581 -1.2103 -0.4516  0.6995
  246POPC  H15Y15946   5.027   6.067   4.734  0.3347  0.1368 -0.4392
  246POPC  C31615947   4.890   5.907   4.742  0.8556  0.5705 -0.2600
  246POPC  H16X15948   4.874   5.806   4.697 -0.6427  1.5802 -2.1182
  246POPC  H16Y15949   4.789   5.954   4.747 -0.0304 -1.0515 -1.8677
  246POPC  H16Z15950   4.937   5.891   4.842 -1.4605 -2.2969  0.5279
  247POPC     N15951   2.893   5.653   2.750 -0.1950  0.1785  0.4130
  247POPC   C1215952   2.860   5.782   2.677 -0.3705 -0.3016  0.8109
  247POPC  H12A15953   2.858   5.774   2.570  1.6549 -1.6526  0.8291
  247POPC  H12B15954   2.944   5.849   2.687 -2.2126  2.1291  1.0644
  247POPC   C1315955   2.953   5.675   2.880 -0.5899  0.2646  0.4721
  247POPC  H13A15956   2.902   5.760   2.923  0.2167  0.6974  0.5813
  247POPC  H13B15957   2.948   5.588   2.944 -2.2757 -0.6362 -0.7791
  247POPC  H13C15958   3.057   5.703   2.871 -0.8618  1.0933 -0.2148
  247POPC   C1415959   2.768   5.575   2.771 -0.3395 -0.1530 -0.3426
  247POPC  H14A15960   2.781   5.482   2.824  0.6805  0.6234  0.7993
  247POPC  H14B15961   2.695   5.622   2.835 -1.6381 -2.8446  0.2998
  247POPC  H14C15962   2.720   5.552   2.677  1.8363 -1.7553 -1.1347
  247POPC   C1515963   2.988   5.561   2.669 -0.1890  0.6977 -0.8464
  247POPC  H15A15964   3.006   5.475   2.731  2.5023 -1.4455 -4.2958
  247POPC  H15B15965   3.086   5.604   2.660 -0.5660  2.0315  0.7682
  247POPC  H15C15966   2.949   5.522   2.576  0.5356 -2.6567  0.1322
  247POPC   C1115967   2.737   5.859   2.728  0.5537  0.4867 -0.9286
  247POPC  H11A15968   2.645   5.804   2.700 -0.6584  1.7371  0.4023
  247POPC  H11B15969   2.721   5.957   2.677  0.7591  1.7318  1.2479
  247POPC     P15970   2.629   5.939   2.956  0.2844  0.2373 -0.1419
  247POPC   O1315971   2.562   5.820   3.009  0.1248  0.5146 -0.4241
  247POPC   O1415972   2.554   6.034   2.874 -0.2461 -0.3911  0.5241
  247POPC   O1215973   2.744   5.883   2.867 -0.2538  0.2284 -0.2608
  247POPC   O1115974   2.688   6.026   3.074 -0.6956  0.1751  0.1928
  247POPC    C115975   2.801   5.975   3.152 -0.0935 -0.6373  0.5175
  247POPC    HA15976   2.852   6.063   3.195 -0.5131 -1.5811  3.1391
  247POPC    HB15977   2.876   5.916   3.095  0.3919 -0.5873  1.0967
  247POPC    C215978   2.749   5.894   3.279 -0.1008 -0.5353 -0.4003
  247POPC    HS15979   2.715   5.796   3.238 -0.1433  0.3156 -2.5022
  247POPC   O2115980   2.638   5.958   3.346  0.2752  0.6343 -0.3942
  247POPC   C2115981   2.566   5.880   3.422  0.1446  0.3586  0.1082
  247POPC   O2215982   2.594   5.763   3.455  0.2054  0.1107 -0.2481
  247POPC   C2215983   2.446   5.958   3.475  0.4053 -0.1101 -0.9019
  247POPC   H2R15984   2.357   5.945   3.410  0.6687  0.4955 -1.3968
  247POPC   H2S15985   2.474   6.065   3.468 -0.7507  0.2459 -0.3811
  247POPC    C315986   2.876   5.869   3.369  0.3813  0.5605  0.3322
  247POPC    HX15987   2.957   5.813   3.319 -0.1548  0.8976 -0.9401
  247POPC    HY15988   2.838   5.814   3.458 -1.6225 -0.7206 -1.2265
  247POPC   O3115989   2.933   5.995   3.403  0.0182 -0.2982  0.3510
  247POPC   C3115990   2.989   6.010   3.521  0.1722  0.2832  0.2580
  247POPC   O3215991   3.013   5.911   3.593 -0.1257 -0.0209  0.8006
  247POPC   C3215992   3.028   6.150   3.557 -0.7913 -0.5222  0.1406
  247POPC   H2X15993   2.938   6.211   3.581 -0.3917  0.7906 -1.5459
  247POPC   H2Y15994   3.089   6.193   3.475 -0.3377 -0.2225  0.6290
  247POPC   C2315995   2.415   5.930   3.627 -0.2260 -0.6242 -0.3063
  247POPC   H3R15996   2.376   5.828   3.646  1.7752 -1.1628  1.3565
  247POPC   H3S15997   2.337   6.005   3.651  3.0303  2.1578  2.5985
  247POPC   C2415998   2.543   5.961   3.715 -0.4443 -0.7736  0.1200
  247POPC   H4R15999   2.589   6.060   3.693 -0.1933 -0.7233  0.8574
  247POPC   H4S16000   2.617   5.882   3.690 -1.1496 -1.2716 -0.4373
  247POPC   C2516001   2.517   5.963   3.870  0.0680 -0.3259 -0.2629
  247POPC   H5R16002   2.501   5.856   3.897 -0.8707 -0.1502 -0.0731
  247POPC   H5S16003   2.417   6.012   3.875 -0.0856 -0.7396  0.7867
  247POPC   C2616004   2.618   6.029   3.963  0.0848  0.8245 -0.3112
  247POPC   H6R16005   2.632   6.134   3.932 -2.1425  1.2822  0.0895
  247POPC   H6S16006   2.709   5.964   3.962 -0.4397  0.0445  0.5979
  247POPC   C2716007   2.559   6.033   4.107 -0.4640  0.4900 -0.3576
  247POPC   H7R16008   2.521   5.931   4.130  0.3238  0.3039  0.1643
  247POPC   H7S16009   2.462   6.087   4.112 -0.3777  0.4949  2.8448
  247POPC   C2816010   2.658   6.076   4.220  0.4227 -0.0315  1.0222
  247POPC   H8R16011   2.743   6.007   4.202 -1.8544 -2.8539  0.4579
  247POPC   H8S16012   2.605   6.056   4.315 -2.1939  0.7317 -0.1696
  247POPC   C2916013   2.703   6.219   4.212  0.0136  0.5701  0.0925
  247POPC   H9116014   2.746   6.243   4.114 -1.0361 -0.4732 -0.6596
  247POPC  C21016015   2.700   6.322   4.296 -0.1336 -0.3603  0.0724
  247POPC  H10116016   2.774   6.402   4.282 -0.3920  0.0397  0.8864
  247POPC  C21116017   2.628   6.315   4.430  0.1689 -0.1775  0.5647
  247POPC  H11R16018   2.698   6.270   4.503  0.2275 -0.8213  0.1170
  247POPC  H11S16019   2.538   6.250   4.422 -0.9581  0.6467  4.5032
  247POPC  C21216020   2.576   0.004   4.485  0.0748 -0.9765 -0.7862
  247POPC  H12R16021   2.507   0.038   4.404 -2.1604  1.1743  1.8111
  247POPC  H12S16022   2.650   0.085   4.498 -0.1946 -0.7744 -0.4908
  247POPC  C21316023   2.480  -0.006   4.609  0.3238  0.1039 -0.9143
  247POPC  H13R16024   2.396  -0.073   4.579 -0.3060  0.1425  0.6707
  247POPC  H13S16025   2.422   0.086   4.632  1.0162  0.0035  1.4466
  247POPC  C21416026   2.545   6.378   4.734  0.3603  0.2529  0.6550
  247POPC  H14R16027   2.611   6.291   4.714 -2.0178 -1.6292  0.5293
  247POPC  H14S16028   2.476   6.337   4.811 -1.8485 -1.9038 -2.2805
  247POPC  C21516029   2.637   0.034   4.800  0.1266 -0.2237 -0.0886
  247POPC  H15R16030   2.573   0.120   4.829  0.1885  0.2220 -1.2219
  247POPC  H15S16031   2.715   0.074   4.732 -0.4668 -0.5168 -0.9590
  247POPC  C21616032   2.710   6.418   4.919 -0.6042 -0.7855 -0.2198
  247POPC  H16R16033   2.775   6.340   4.874 -0.8411 -1.4002  0.4879
  247POPC  H16S16034   2.635   6.362   4.978 -3.4287  0.1747 -2.6923
  247POPC  C21716035   2.779   0.062   5.027 -0.8621  0.5315  0.5441
  247POPC  H17R16036   2.691   0.113   5.073 -1.2896 -0.3173  0.6835
  247POPC  H17S16037   2.846   0.143   4.990  0.2932 -0.2439  0.8972
  247POPC  C21816038   2.862   6.424   5.121 -0.4889  0.0179  0.6754
  247POPC  H18R16039   2.873   6.481   5.216  1.7752  2.7956 -1.1049
  247POPC  H18S16040   2.963   6.397   5.084 -2.0186 -0.2781 -3.8538
  247POPC  H18T16041   2.808   6.329   5.142  0.5539 -0.5121  1.0398
  247POPC   C3316042   3.113   6.165   3.693 -0.5115  0.0982 -0.1421
  247POPC   H3X16043   3.216   6.124   3.690  0.9505  3.5045 -1.2192
  247POPC   H3Y16044   3.055   6.113   3.773  0.5569 -1.8445 -0.5534
  247POPC   C3416045   3.114   6.313   3.726 -0.3991 -0.0692  0.4326
  247POPC   H4X16046   3.011   6.356   3.722  0.2777  1.5914 -0.2087
  247POPC   H4Y16047   3.174   6.364   3.648 -1.4691 -1.7776 -1.5948
  247POPC   C3516048   3.170   6.331   3.861 -0.0216 -0.3088 -0.2857
  247POPC   H5X16049   3.258   6.269   3.886  0.1455  0.6583  1.7364
  247POPC   H5Y16050   3.096   6.299   3.938  1.2072 -0.8686  0.6880
  247POPC   C3616051   3.217   0.034   3.895  0.5567  0.5997  0.8738
  247POPC   H6X16052   3.129   0.102   3.888  0.7291  0.6702 -3.0353
  247POPC   H6Y16053   3.292   0.065   3.819  0.2840 -1.5352 -0.3594
  247POPC   C3716054   3.278   0.049   4.034  0.1736 -0.2223 -0.5969
  247POPC   H7X16055   3.370  -0.013   4.028  2.1022  2.3729  0.0412
  247POPC   H7Y16056   3.198   0.003   4.096  2.1198 -1.6908  0.9423
  247POPC   C3816057   3.317   0.189   4.075  0.7498 -0.5562 -0.3067
  247POPC   H8X16058   3.260   0.263   4.015  1.9376 -1.1294 -2.2579
  247POPC   H8Y16059   3.426   0.202   4.054  1.3366 -0.8604  2.2155
  247POPC   C3916060   3.307   0.209   4.229 -0.4319  0.1417 -0.1834
  247POPC   H9X16061   3.377   0.134   4.274  0.2150 -0.1188 -1.5582
  247POPC   H9Y16062   3.205   0.186   4.266 -0.8650 -1.3519 -2.0876
  247POPC  C31016063   3.342   0.353   4.267 -0.3806 -0.1125  0.5250
  247POPC  H10X16064   3.287   0.431   4.211  0.1260  0.5246  0.9057
  247POPC  H10Y16065   3.449   0.377   4.247 -0.2248  0.0122  1.4500
  247POPC  C31116066   3.309   0.379   4.416 -0.7710 -0.7948  0.1035
  247POPC  H11X16067   3.368   0.310   4.480 -1.8320 -3.6283 -1.7711
  247POPC  H11Y16068   3.207   0.358   4.454  0.3401  0.9167  4.6171
  247POPC  C31216069   3.346   0.526   4.455 -0.4255 -0.4729 -0.3638
  247POPC  H12X16070   3.310   0.606   4.386 -0.0019  0.4664  0.4755
  247POPC  H12Y16071   3.453   0.533   4.424 -0.8274 -0.4558 -1.8273
  247POPC  C31316072   3.317   0.556   4.606  0.0768  0.6899  0.3805
  247POPC  H13X16073   3.214   0.520   4.624  0.0611  0.5550  0.0350
  247POPC  H13Y16074   3.315   0.665   4.623  1.7162  0.7545  0.3479
  247POPC  C31416075   3.420   0.494   4.698 -0.5126  0.8314 -0.3154
  247POPC  H14X16076   3.515   0.547   4.678 -1.3936  2.2831 -0.8361
  247POPC  H14Y16077   3.429   0.385   4.682 -3.6673  0.2714  1.0244
  247POPC  C31516078   3.395   0.505   4.851  0.5468  0.2222  0.1299
  247POPC  H15X16079   3.296   0.460   4.871  0.9287 -0.0508  1.5387
  247POPC  H15Y16080   3.387   0.612   4.880 -1.6207 -0.1824  1.1715
  247POPC  C31616081   3.507   0.428   4.929 -0.5664  0.7946  0.0496
  247POPC  H16X16082   3.512   0.319   4.909 -2.6989  0.5943  0.3485
  247POPC  H16Y16083   3.505   0.445   5.039  4.9028 -2.8831  1.1061
  247POPC  H16Z16084   3.609   0.463   4.902 -0.6024  1.8774  1.2415
  248POPC     N16085   3.935   5.064   2.633  0.0568 -0.1747  0.0359
  248POPC   C1216086   3.835   4.992   2.723 -0.2217 -0.0303  0.5355
  248POPC  H12A16087   3.862   4.887   2.730 -1.5026 -0.2909  2.0532
  248POPC  H12B16088   3.739   4.999   2.673  0.3393 -0.9294 -0.7378
  248POPC   C1316089   3.890   5.208   2.604 -0.5555 -0.4344  0.2450
  248POPC  H13A16090   3.896   5.267   2.695  0.5058  2.1968 -1.4091
  248POPC  H13B16091   3.953   5.261   2.534  1.7302 -0.2926  2.2799
  248POPC  H13C16092   3.786   5.209   2.576 -0.3354 -1.0448 -0.6272
  248POPC   C1416093   4.063   5.065   2.701  0.5012  0.0764  0.1961
  248POPC  H14A16094   4.109   4.967   2.706  0.4418 -0.0150 -0.8984
  248POPC  H14B16095   4.135   5.122   2.645  0.8783 -1.0626 -0.5220
  248POPC  H14C16096   4.045   5.099   2.802  0.4817  1.5588 -0.2802
  248POPC   C1516097   3.949   4.981   2.509  0.2100  0.8752  1.0984
  248POPC  H15A16098   3.857   4.961   2.456  1.5562 -0.7746 -0.7476
  248POPC  H15B16099   3.999   4.890   2.536  1.2466  1.3102  0.7035
  248POPC  H15C16100   4.013   5.038   2.443 -0.2737  1.4948  1.1481
  248POPC   C1116101   3.801   5.057   2.862 -0.7629 -0.2336 -0.8611
  248POPC  H11A16102   3.900   5.072   2.910 -1.4998 -0.1764  0.7124
  248POPC  H11B16103   3.748   4.992   2.936  1.1706 -0.1062  0.7254
  248POPC     P16104   3.572   5.177   2.822  0.3964 -0.4023  0.2417
  248POPC   O1316105   3.540   5.040   2.778  0.3759 -0.0727 -0.0922
  248POPC   O1416106   3.521   5.286   2.739  0.1661  0.0597  0.2639
  248POPC   O1216107   3.736   5.186   2.859  0.6179  0.4973 -0.2234
  248POPC   O1116108   3.503   5.196   2.962  0.2345 -0.3476 -0.1754
  248POPC    C116109   3.520   5.309   3.045 -0.0312 -0.0654 -0.2864
  248POPC    HA16110   3.434   5.318   3.115  1.8025 -1.6427  2.3257
  248POPC    HB16111   3.532   5.402   2.984 -0.3791 -0.7674 -1.4575
  248POPC    C216112   3.648   5.305   3.131 -0.4294  0.5856  0.2175
  248POPC    HS16113   3.730   5.271   3.064 -1.4703 -1.1429 -0.2392
  248POPC   O2116114   3.642   5.205   3.240  0.3998  0.7759  0.3000
  248POPC   C2116115   3.756   5.147   3.261  0.7229  0.6561  0.4889
  248POPC   O2216116   3.867   5.175   3.216 -0.4486 -0.4042 -0.7755
  248POPC   C2216117   3.729   5.024   3.351 -0.3736 -0.0683 -0.0050
  248POPC   H2R16118   3.656   5.057   3.428 -1.5665 -0.3428 -0.9873
  248POPC   H2S16119   3.819   5.004   3.414 -0.2393  2.3021  0.6818
  248POPC    C316120   3.683   5.440   3.189 -0.2909  0.1783 -0.4866
  248POPC    HX16121   3.598   5.479   3.249  0.7391  1.0830  0.4323
  248POPC    HY16122   3.699   5.506   3.101  3.3318 -0.0047 -0.1398
  248POPC   O3116123   3.790   5.437   3.292 -0.0738  0.6430  0.5353
  248POPC   C3116124   3.913   5.481   3.243  1.0219  0.5794  0.2218
  248POPC   O3216125   3.920   5.533   3.136  0.1712  0.2235  0.4034
  248POPC   C3216126   4.027   5.446   3.338 -0.9142 -0.4896 -0.1170
  248POPC   H2X16127   4.114   5.496   3.291 -1.1674 -0.3304 -0.4250
  248POPC   H2Y16128   4.051   5.338   3.345 -1.2608 -0.4768  2.0215
  248POPC   C2316129   3.684   4.901   3.271 -0.2065  0.3401  0.4360
  248POPC   H3R16130   3.736   4.902   3.173  1.1427  2.0232  1.1207
  248POPC   H3S16131   3.577   4.919   3.250  0.1180  0.6691 -1.0388
  248POPC   C2416132   3.701   4.769   3.341 -0.5726  0.3667  0.2792
  248POPC   H4R16133   3.648   4.696   3.276  0.8755 -0.5648  0.0927
  248POPC   H4S16134   3.639   4.765   3.433 -3.0880  1.5240 -1.2443
  248POPC   C2516135   3.843   4.725   3.357 -0.6091  0.2762 -0.5293
  248POPC   H5R16136   3.890   4.803   3.421 -1.8745 -0.4656  1.3937
  248POPC   H5S16137   3.901   4.720   3.263  1.4984 -1.3559  0.7592
  248POPC   C2616138   3.847   4.592   3.434  0.1058  0.1466  0.3006
  248POPC   H6R16139   3.791   4.515   3.377  0.3339  0.5092 -0.4284
  248POPC   H6S16140   3.791   4.613   3.528 -2.7818  0.8455 -1.4530
  248POPC   C2716141   3.990   4.557   3.465 -0.2955  0.6057  0.1309
  248POPC   H7R16142   4.046   4.638   3.517  1.0832  1.0155 -1.8716
  248POPC   H7S16143   4.044   4.542   3.369 -2.6733  0.6133 -1.2605
  248POPC   C2816144   3.989   4.418   3.538  0.9660  0.1468 -0.5134
  248POPC   H8R16145   3.946   4.349   3.462 -3.5233  0.7313  1.1893
  248POPC   H8S16146   3.916   4.415   3.622  1.9837  0.4601  0.3970
  248POPC   C2916147   4.133   4.391   3.583 -0.1037 -0.9809  0.2347
  248POPC   H9116148   4.213   4.455   3.543 -0.4137  1.2327  2.8671
  248POPC  C21016149   4.169   4.308   3.679 -0.5247 -0.0074 -0.3401
  248POPC  H10116150   4.277   4.292   3.694 -0.7735 -1.4885  0.0430
  248POPC  C21116151   4.084   4.211   3.758  0.2485 -0.6022  0.0587
  248POPC  H11R16152   4.124   4.108   3.748  0.2872 -0.7793  1.7562
  248POPC  H11S16153   3.982   4.212   3.715 -0.1992  0.6860  1.0507
  248POPC  C21216154   4.074   4.255   3.903 -0.2471  0.3175 -0.3647
  248POPC  H12R16155   4.034   4.359   3.908  0.1794  0.5459 -1.3519
  248POPC  H12S16156   4.172   4.246   3.954 -1.2111  1.4350  1.7966
  248POPC  C21316157   3.986   4.157   3.984  0.1034 -0.3585 -0.4672
  248POPC  H13R16158   4.040   4.060   3.991  1.5113  0.5044  1.4044
  248POPC  H13S16159   3.890   4.158   3.927  0.3829  1.1341 -0.9312
  248POPC  C21416160   3.962   4.206   4.126  0.0587  0.8530  0.1720
  248POPC  H14R16161   3.936   4.313   4.113  0.4363  0.6979 -2.1260
  248POPC  H14S16162   4.065   4.205   4.167 -0.5796  2.7903  1.9857
  248POPC  C21516163   3.879   4.114   4.214  0.1464  0.1550  0.6472
  248POPC  H15R16164   3.774   4.111   4.179  0.5143  1.2393 -0.6500
  248POPC  H15S16165   3.872   4.157   4.316 -1.5754  2.3674 -0.3109
  248POPC  C21616166   3.942   3.975   4.216 -0.0161  0.4288 -0.1388
  248POPC  H16R16167   4.047   3.973   4.254  0.0964 -2.2274 -0.4051
  248POPC  H16S16168   3.928   3.924   4.119 -1.6654 -2.6234  1.5491
  248POPC  C21716169   3.869   3.880   4.316  0.8603  0.7170 -0.6439
  248POPC  H17R16170   3.760   3.865   4.301  1.1200 -1.2010 -0.7402
  248POPC  H17S16171   3.880   3.922   4.419 -2.1384 -2.8630  1.3558
  248POPC  C21816172   3.926   3.740   4.320  0.1108 -0.1690  0.1905
  248POPC  H18R16173   4.032   3.752   4.352  0.3200 -0.5764 -0.3294
  248POPC  H18S16174   3.915   3.693   4.220 -0.5890 -2.0474  1.1164
  248POPC  H18T16175   3.877   3.683   4.401  0.5676  1.6649  1.8495
  248POPC   C3316176   3.991   5.494   3.476  0.1158 -0.2349  0.7420
  248POPC   H3X16177   4.073   5.464   3.545  1.0329  2.0280  0.7210
  248POPC   H3Y16178   3.905   5.430   3.504 -0.0906  0.6542  2.2674
  248POPC   C3416179   3.966   5.645   3.499 -0.2626 -0.3285 -0.6392
  248POPC   H4X16180   3.882   5.675   3.433  0.3383  3.7787  0.1639
  248POPC   H4Y16181   4.052   5.701   3.457  1.5389 -2.8093 -0.4288
  248POPC   C3516182   3.956   5.675   3.649  0.1607 -0.4137  0.4336
  248POPC   H5X16183   4.054   5.682   3.700 -0.2166  2.7895  0.8895
  248POPC   H5Y16184   3.898   5.591   3.692  0.2554  0.2386  1.8661
  248POPC   C3616185   3.878   5.801   3.694 -0.2319 -0.1493 -0.2466
  248POPC   H6X16186   3.771   5.795   3.665 -0.0761  2.3673 -1.6082
  248POPC   H6Y16187   3.917   5.891   3.641 -0.6784 -1.2655 -2.6076
  248POPC   C3716188   3.882   5.819   3.849  0.9454  0.0896  0.7958
  248POPC   H7X16189   3.853   5.923   3.875  0.6062  1.0758 -2.9278
  248POPC   H7Y16190   3.987   5.801   3.881  1.5772  0.3961 -0.9777
  248POPC   C3816191   3.795   5.713   3.933 -0.3966  0.0480  0.3707
  248POPC   H8X16192   3.847   5.616   3.919  0.8637  0.5326  1.5352
  248POPC   H8Y16193   3.688   5.709   3.903  0.2734 -1.2704 -2.2105
  248POPC   C3916194   3.798   5.747   4.079 -0.2592  0.6277 -0.0247
  248POPC   H9X16195   3.763   5.852   4.087 -1.4340  0.2368  0.0575
  248POPC   H9Y16196   3.899   5.738   4.125 -0.6353  0.3822  0.7791
  248POPC  C31016197   3.697   5.650   4.151 -0.6587 -0.7133  0.3062
  248POPC  H10X16198   3.730   5.546   4.128 -1.4173 -0.7445 -0.7305
  248POPC  H10Y16199   3.603   5.678   4.099 -0.8881 -2.1088 -0.0779
  248POPC  C31116200   3.685   5.667   4.306 -1.1439 -0.3465  0.4955
  248POPC  H11X16201   3.633   5.763   4.328 -0.9411  0.3137 -1.6195
  248POPC  H11Y16202   3.789   5.669   4.347 -1.9178 -2.8639  2.9085
  248POPC  C31216203   3.622   5.542   4.374  0.1896 -0.2591 -0.1466
  248POPC  H12X16204   3.703   5.466   4.374 -0.4794 -0.9871 -0.3969
  248POPC  H12Y16205   3.534   5.513   4.311 -0.5046  1.7809 -0.2150
  248POPC  C31316206   3.569   5.566   4.521 -0.4298  0.9249 -0.0337
  248POPC  H13X16207   3.470   5.617   4.514 -1.0605 -0.5153 -2.5514
  248POPC  H13Y16208   3.648   5.631   4.564 -2.4934  2.6236  1.3878
  248POPC  C31416209   3.555   5.445   4.607 -0.1446  0.6008 -0.7997
  248POPC  H14X16210   3.646   5.382   4.611 -0.5721  0.0301  0.4847
  248POPC  H14Y16211   3.478   5.377   4.565  1.3604 -0.1785 -2.4091
  248POPC  C31516212   3.517   5.490   4.746  0.5374  0.9199 -0.1523
  248POPC  H15X16213   3.420   5.543   4.732  0.0133  0.2070  0.6931
  248POPC  H15Y16214   3.596   5.543   4.803  1.3547  0.2475 -0.6449
  248POPC  C31616215   3.494   5.371   4.836  0.3659  0.2487  0.4991
  248POPC  H16X16216   3.434   5.291   4.788  2.6928 -0.9770 -0.5390
  248POPC  H16Y16217   3.437   5.407   4.925  1.5046 -0.0781  1.3860
  248POPC  H16Z16218   3.583   5.318   4.875 -0.7744 -1.7396  0.5376
  249POPC     N16219   0.788   3.384   2.628 -0.5301  0.1482  0.3647
  249POPC   C1216220   0.685   3.382   2.745 -0.5749 -0.3729  0.9229
  249POPC  H12A16221   0.660   3.486   2.754  1.8110  0.3982 -0.5231
  249POPC  H12B16222   0.746   3.342   2.825  1.5302 -1.1936 -1.0016
  249POPC   C1316223   0.838   3.241   2.623 -0.8558  0.3350 -0.5328
  249POPC  H13A16224   0.758   3.170   2.610 -1.4607  0.9977 -0.4866
  249POPC  H13B16225   0.905   3.228   2.540 -0.7139 -2.5123 -0.0509
  249POPC  H13C16226   0.885   3.215   2.716 -2.4472 -1.4761 -0.1907
  249POPC   C1416227   0.735   3.426   2.490 -0.0362  0.6906 -0.4850
  249POPC  H14A16228   0.659   3.502   2.499 -2.1963 -1.0881 -2.5516
  249POPC  H14B16229   0.818   3.462   2.431  0.7657 -0.2197  0.0517
  249POPC  H14C16230   0.687   3.337   2.452  0.2565  0.2249  0.2058
  249POPC   C1516231   0.900   3.476   2.667 -0.6364 -0.0942 -0.3865
  249POPC  H15A16232   0.967   3.484   2.583 -0.4638  1.0301 -0.1548
  249POPC  H15B16233   0.962   3.443   2.749  0.1805 -0.2731 -1.0599
  249POPC  H15C16234   0.871   3.577   2.688 -2.1553 -0.3545 -1.0902
  249POPC   C1116235   0.556   3.301   2.713 -0.0603 -0.1043 -0.2201
  249POPC  H11A16236   0.513   3.278   2.813  1.5235 -1.8797  0.1067
  249POPC  H11B16237   0.579   3.194   2.692 -0.4027  0.0007 -1.2175
  249POPC     P16238   0.403   3.489   2.645 -0.1376  0.1426  0.0198
  249POPC   O1316239   0.298   3.510   2.548 -0.1411 -0.7506 -0.4707
  249POPC   O1416240   0.506   3.598   2.661  0.0956  0.7047 -0.5103
  249POPC   O1216241   0.471   3.352   2.610 -0.0734  0.0350 -0.3836
  249POPC   O1116242   0.342   3.471   2.791 -0.1033 -0.5324 -0.4427
  249POPC    C116243   0.214   3.414   2.815 -0.6322  0.2606  0.6407
  249POPC    HA16244   0.217   3.333   2.892  1.7206 -0.7586 -0.4292
  249POPC    HB16245   0.181   3.366   2.720  2.6039  2.1126 -1.6152
  249POPC    C216246   0.119   3.525   2.853  0.6555  0.4681 -0.3606
  249POPC    HS16247   0.112   3.608   2.780 -1.8594  0.6297 -0.0477
  249POPC   O2116248   0.167   3.581   2.972 -0.4867 -0.2995 -0.5074
  249POPC   C2116249   0.118   3.700   2.998  0.4920  0.1062 -1.0084
  249POPC   O2216250   0.028   3.759   2.942 -0.5331 -0.4839 -0.1104
  249POPC   C2216251   0.182   3.761   3.132  0.7355  0.0291  1.2298
  249POPC   H2R16252   0.260   3.831   3.095 -2.1888  1.6693 -2.4327
  249POPC   H2S16253   0.230   3.677   3.187  3.9232 -0.0782 -1.3885
  249POPC    C316254   6.417   3.474   2.866  0.4622  0.1559  0.8661
  249POPC    HX16255   6.381   3.461   2.762 -3.3553 -1.2840  2.1887
  249POPC    HY16256   6.351   3.555   2.904  2.5114  2.1849  0.3679
  249POPC   O3116257   6.412   3.344   2.934 -0.0784  0.0994  0.4621
  249POPC   C3116258   6.341   3.336   3.048  0.3613 -0.0213  0.5515
  249POPC   O3216259   6.289   3.430   3.108  0.2118  0.5531 -0.2038
  249POPC   C3216260   6.327   3.192   3.085 -0.0732  0.2128  0.1730
  249POPC   H2X16261   6.386   3.134   3.011 -1.1708  0.2592 -0.7683
  249POPC   H2Y16262   6.220   3.163   3.077  0.1561 -0.0858 -2.4053
  249POPC   C2316263   0.080   3.829   3.234 -0.2366  0.2689 -0.1043
  249POPC   H3R16264   0.090   3.940   3.231  1.2210  0.4008  3.6122
  249POPC   H3S16265   0.121   3.808   3.336 -1.0036  1.3516  0.4405
  249POPC   C2416266   6.377   3.781   3.237  0.0827 -0.4355 -0.1961
  249POPC   H4R16267   6.367   3.685   3.183  3.4651  0.9089 -3.7167
  249POPC   H4S16268   6.315   3.857   3.186  0.2056  0.5864  1.1270
  249POPC   C2516269   6.301   3.772   3.370 -0.1169 -0.0811 -0.2358
  249POPC   H5R16270   6.288   3.876   3.406 -2.8810 -0.4673  0.0867
  249POPC   H5S16271   6.360   3.717   3.446 -1.3585 -1.8246 -0.4867
  249POPC   C2616272   6.164   3.702   3.340  0.2985 -0.7143 -0.0196
  249POPC   H6R16273   6.181   3.600   3.301  1.4096  0.2337 -2.1866
  249POPC   H6S16274   6.115   3.750   3.253  0.4835  0.8087  0.6818
  249POPC   C2716275   6.079   3.706   3.468  0.2112  0.1610 -0.1086
  249POPC   H7R16276   6.139   3.677   3.557 -0.9581  0.2946  0.7430
  249POPC   H7S16277   5.997   3.634   3.443 -0.8140  2.0452 -2.6495
  249POPC   C2816278   6.009   3.836   3.485 -0.4154 -0.0689  0.0074
  249POPC   H8R16279   5.955   3.866   3.392  1.0830  1.3924 -0.4378
  249POPC   H8S16280   6.087   3.915   3.489  0.8819 -1.1753 -1.8236
  249POPC   C2916281   5.915   3.836   3.602  1.1465  0.3828 -0.3862
  249POPC   H9116282   5.815   3.866   3.567  1.2626  1.6216  0.2899
  249POPC  C21016283   5.923   3.812   3.735  0.0771 -0.8036 -0.3436
  249POPC  H10116284   5.836   3.815   3.802  1.9714 -0.1964  2.2730
  249POPC  C21116285   6.054   3.781   3.797 -0.1524  0.7073  0.0515
  249POPC  H11R16286   6.089   3.867   3.858  2.1344 -0.4930  0.5313
  249POPC  H11S16287   6.145   3.765   3.737 -0.3099  1.7896 -0.4967
  249POPC  C21216288   6.040   3.658   3.899  1.2343 -0.3500  0.1620
  249POPC  H12R16289   6.136   3.620   3.940  0.9073 -0.4854  0.8076
  249POPC  H12S16290   5.998   3.568   3.847  2.7494 -2.7493  2.7997
  249POPC  C21316291   5.959   3.698   4.025  0.2798  0.3566 -0.1080
  249POPC  H13R16292   5.901   3.792   4.017 -2.6008 -1.1035  1.9020
  249POPC  H13S16293   6.042   3.707   4.099  2.3372 -1.2013 -2.0600
  249POPC  C21416294   5.863   3.589   4.076 -0.5168 -0.3680  0.0260
  249POPC  H14R16295   5.786   3.596   3.996  2.1342  1.3686 -2.5444
  249POPC  H14S16296   5.827   3.617   4.178  3.0560  1.4820  0.9254
  249POPC  C21516297   5.919   3.451   4.098 -0.6269  0.6118 -0.3048
  249POPC  H15R16298   5.957   3.415   4.000  0.1009 -0.0496  0.2041
  249POPC  H15S16299   5.848   3.368   4.118  1.1103 -0.7052  0.6994
  249POPC  C21616300   6.033   3.451   4.215 -0.3877 -0.1817  0.2161
  249POPC  H16R16301   5.967   3.498   4.290 -1.8252 -0.6701 -0.7061
  249POPC  H16S16302   6.111   3.520   4.177 -2.5521  2.1162 -0.3372
  249POPC  C21716303   6.083   3.310   4.248 -0.0195 -0.6409 -0.3403
  249POPC  H17R16304   6.153   3.278   4.168 -0.3208 -0.0252 -0.8624
  249POPC  H17S16305   5.996   3.241   4.250  0.3440 -1.1369 -1.2388
  249POPC  C21816306   6.162   3.296   4.379 -0.2850 -0.1639  0.3345
  249POPC  H18R16307   6.114   3.331   4.473 -1.3011 -3.0132  0.9913
  249POPC  H18S16308   6.260   3.349   4.377 -0.3907  0.0534  0.8373
  249POPC  H18T16309   6.190   3.190   4.398 -0.9176 -0.2123  1.0753
  249POPC   C3316310   6.370   3.185   3.237 -1.1853 -0.2086  0.4420
  249POPC   H3X16311   6.443   3.266   3.258 -2.0301  0.4918  0.7429
  249POPC   H3Y16312   6.425   3.089   3.239  1.8543  1.3247 -1.5989
  249POPC   C3416313   6.263   3.183   3.345  0.6397  0.6270 -0.1367
  249POPC   H4X16314   6.286   3.111   3.426 -1.2604  1.7224  1.4782
  249POPC   H4Y16315   6.175   3.129   3.303  0.9407 -0.7268  0.8766
  249POPC   C3516316   6.225   3.325   3.397 -0.4797  0.0489 -0.4453
  249POPC   H5X16317   6.162   3.384   3.327 -1.0070  0.9912  0.7815
  249POPC   H5Y16318   6.327   3.370   3.396 -0.3485 -0.2556 -0.8353
  249POPC   C3616319   6.170   3.338   3.542 -0.3969  0.5753 -0.0500
  249POPC   H6X16320   6.163   3.444   3.572  1.2900  0.4568  0.8608
  249POPC   H6Y16321   6.241   3.283   3.607  0.7585  0.7162 -1.1579
  249POPC   C3716322   6.030   3.288   3.554  0.5150  0.3241 -0.0654
  249POPC   H7X16323   6.037   3.179   3.533  0.0739  0.4750 -1.0655
  249POPC   H7Y16324   5.964   3.352   3.492 -0.6368  0.4551  1.2351
  249POPC   C3816325   5.978   3.296   3.698 -0.2550  0.5861  0.2513
  249POPC   H8X16326   5.867   3.294   3.700 -0.3507 -4.2265  1.2388
  249POPC   H8Y16327   6.011   3.395   3.737  0.3193 -0.3282  2.2148
  249POPC   C3916328   6.026   3.177   3.785 -0.0252  0.1106  1.0014
  249POPC   H9X16329   5.985   3.192   3.887  1.3173  1.3113  1.3869
  249POPC   H9Y16330   6.136   3.169   3.795  0.0297 -0.8011 -0.0428
  249POPC  C31016331   5.961   3.040   3.750  0.2655  0.2545  0.0544
  249POPC  H10X16332   6.014   2.996   3.662 -0.4457  0.2440 -0.3786
  249POPC  H10Y16333   5.859   3.058   3.710  0.9327  2.6819 -0.7878
  249POPC  C31116334   5.969   2.926   3.856 -0.1709  0.3644  0.5017
  249POPC  H11X16335   5.920   2.831   3.828 -0.7336  0.6692  0.4457
  249POPC  H11Y16336   5.919   2.960   3.949 -2.5334 -2.0985  0.2456
  249POPC  C31216337   6.117   2.898   3.893 -0.0054 -0.0825 -0.3185
  249POPC  H12X16338   6.159   2.995   3.930  2.5512 -1.5109  0.8011
  249POPC  H12Y16339   6.175   2.866   3.804  0.2938 -0.0112 -0.1539
  249POPC  C31316340   6.158   2.803   4.011  0.1505 -0.5241 -0.2335
  249POPC  H13X16341   6.115   2.832   4.109  0.0571  0.5028 -0.5663
  249POPC  H13Y16342   6.268   2.814   4.024 -0.1195 -0.5386  3.0651
  249POPC  C31416343   6.124   2.656   3.986 -0.2508  0.2128 -0.2194
  249POPC  H14X16344   6.180   2.620   3.897 -0.8962 -0.6046 -0.3045
  249POPC  H14Y16345   6.018   2.641   3.955  0.1249 -0.5722 -1.1814
  249POPC  C31516346   6.151   2.568   4.109 -0.0301  0.0072  0.4901
  249POPC  H15X16347   6.110   2.624   4.196 -1.0847 -1.5025  1.0168
  249POPC  H15Y16348   6.260   2.547   4.105 -0.1053 -0.3607  0.2096
  249POPC  C31616349   6.067   2.436   4.117 -0.7367 -0.4152 -0.6607
  249POPC  H16X16350   6.086   2.364   4.035  1.3343  0.1767 -0.7647
  249POPC  H16Y16351   5.960   2.465   4.112 -0.9227 -1.0637 -0.4860
  249POPC  H16Z16352   6.067   2.385   4.216  1.7500 -0.6358 -0.7088
  250POPC     N16353   3.614   5.955   2.519 -0.0513 -0.4918  0.2986
  250POPC   C1216354   3.573   5.877   2.641  0.0051 -0.7234 -0.1511
  250POPC  H12A16355   3.660   5.849   2.699 -0.6526 -0.7847  0.8244
  250POPC  H12B16356   3.529   5.783   2.609  0.3395 -1.8925  2.5289
  250POPC   C1316357   3.644   6.095   2.558 -0.2012 -0.4652 -0.2111
  250POPC  H13A16358   3.675   6.161   2.478  1.1731  1.4791  1.8129
  250POPC  H13B16359   3.550   6.141   2.582  0.0212  0.5925 -1.2872
  250POPC  H13C16360   3.719   6.109   2.635 -0.2544 -1.8067  0.1123
  250POPC   C1416361   3.745   5.888   2.469  0.5763  0.9402 -0.1846
  250POPC  H14A16362   3.823   5.910   2.539  1.3303 -0.4774 -0.5462
  250POPC  H14B16363   3.731   5.781   2.472 -1.6512  1.1419 -1.0326
  250POPC  H14C16364   3.772   5.907   2.366  0.2195  0.3079 -0.4033
  250POPC   C1516365   3.509   5.942   2.415  0.4423 -0.3844  0.2353
  250POPC  H15A16366   3.516   5.845   2.369 -0.1706  0.2850 -1.3520
  250POPC  H15B16367   3.533   6.014   2.338  1.0233 -0.7210  0.0989
  250POPC  H15C16368   3.412   5.962   2.459  0.2793  2.3451 -1.1182
  250POPC   C1116369   3.475   5.947   2.740 -0.1184 -0.6122 -0.6959
  250POPC  H11A16370   3.510   6.041   2.789  0.4800 -1.0750 -0.2108
  250POPC  H11B16371   3.465   5.893   2.837 -0.9089 -0.1535 -0.5137
  250POPC     P16372   3.222   5.880   2.689  0.2657 -0.1811 -0.0112
  250POPC   O1316373   3.222   5.769   2.593  0.5491 -0.2187 -0.2552
  250POPC   O1416374   3.115   5.977   2.666 -0.6409 -0.5265  0.6115
  250POPC   O1216375   3.350   5.965   2.672  0.0128  0.3887  0.0435
  250POPC   O1116376   3.223   5.819   2.843  0.5035  0.5648  0.5478
  250POPC    C116377   3.184   5.891   2.954  0.1610  0.6382  0.0010
  250POPC    HA16378   3.073   5.899   2.957 -0.1116 -0.6316 -2.8167
  250POPC    HB16379   3.226   5.994   2.954  2.4499 -0.2544  0.1864
  250POPC    C216380   3.237   5.835   3.089 -0.2983 -0.2817 -0.2977
  250POPC    HS16381   3.348   5.826   3.090 -0.3193 -0.7838  1.0992
  250POPC   O2116382   3.168   5.713   3.121  0.2068 -0.8105 -1.4188
  250POPC   C2116383   3.246   5.612   3.146  0.1868  0.5860  0.0425
  250POPC   O2216384   3.367   5.613   3.146  0.2718  0.0133 -0.0455
  250POPC   C2216385   3.167   5.487   3.191  0.2501  0.0302 -0.2533
  250POPC   H2R16386   3.192   5.401   3.125 -0.8260 -0.4660 -0.0482
  250POPC   H2S16387   3.058   5.500   3.175  0.2852 -0.4365 -0.9006
  250POPC    C316388   3.218   5.935   3.207  0.4477  0.1309 -0.3837
  250POPC    HX16389   3.110   5.947   3.228  0.3166  1.4054 -1.6160
  250POPC    HY16390   3.248   6.040   3.188 -2.8002  1.2571  0.0270
  250POPC   O3116391   3.272   5.883   3.324 -0.1586  0.0686 -0.9151
  250POPC   C3116392   3.392   5.930   3.353  0.3051 -0.1719  0.4721
  250POPC   O3216393   3.448   6.015   3.287  0.1473  0.0044 -0.0555
  250POPC   C3216394   3.455   5.849   3.464 -0.8517 -0.2234 -0.1322
  250POPC   H2X16395   3.559   5.880   3.487 -1.4029 -0.4021  3.0946
  250POPC   H2Y16396   3.451   5.751   3.411  0.9071  1.3291 -3.4693
  250POPC   C2316397   3.204   5.438   3.336  0.4528  0.1585  0.8394
  250POPC   H3R16398   3.309   5.405   3.323 -0.0726 -0.6929 -2.1105
  250POPC   H3S16399   3.140   5.354   3.369  1.1848 -1.5694 -1.7811
  250POPC   C2416400   3.184   5.543   3.443  0.5499  0.1174 -0.6525
  250POPC   H4R16401   3.212   5.645   3.411  0.8415  0.6998  1.3102
  250POPC   H4S16402   3.264   5.514   3.514  1.4995 -0.2515 -1.8331
  250POPC   C2516403   3.043   5.546   3.511  0.4113 -0.5309  0.7431
  250POPC   H5R16404   2.964   5.558   3.434  1.0430 -1.0500 -0.0088
  250POPC   H5S16405   3.033   5.629   3.584  0.4828  0.6320 -0.5287
  250POPC   C2616406   3.014   5.414   3.590  0.2736  0.1213 -0.2156
  250POPC   H6R16407   3.094   5.399   3.666 -1.5507 -0.8412  1.6221
  250POPC   H6S16408   3.013   5.325   3.523 -1.1400 -0.9460  1.1228
  250POPC   C2716409   2.878   5.431   3.672 -1.0454 -0.6480 -0.0333
  250POPC   H7R16410   2.860   5.330   3.716 -1.4168  0.2587  2.0406
  250POPC   H7S16411   2.802   5.456   3.595  0.8402  1.4531 -1.3362
  250POPC   C2816412   2.887   5.533   3.788 -0.4140 -0.6351  0.5257
  250POPC   H8R16413   2.929   5.631   3.759 -1.8465 -0.7629 -2.2903
  250POPC   H8S16414   2.954   5.494   3.868  0.2878  1.6798  1.1361
  250POPC   C2916415   2.753   5.576   3.835 -0.3221 -0.2265  0.2926
  250POPC   H9116416   2.679   5.589   3.755  1.1271  2.3586 -0.7373
  250POPC  C21016417   2.709   5.584   3.956  0.7901  0.1056 -0.0884
  250POPC  H10116418   2.604   5.605   3.980  0.6744 -1.2016  0.6830
  250POPC  C21116419   2.777   5.547   4.083 -0.0768 -0.2985 -0.8003
  250POPC  H11R16420   2.851   5.464   4.072  2.3876  1.7807 -1.0586
  250POPC  H11S16421   2.698   5.523   4.157  0.3683 -0.3806 -0.3472
  250POPC  C21216422   2.853   5.675   4.130 -0.1076 -0.0686 -0.1356
  250POPC  H12R16423   2.790   5.766   4.133 -1.7801 -1.2063  1.1763
  250POPC  H12S16424   2.925   5.699   4.048 -1.2393 -0.3623 -1.2516
  250POPC  C21316425   2.915   5.664   4.274  0.1169 -0.1841  0.2844
  250POPC  H13R16426   2.995   5.591   4.249  1.1556  1.7180 -2.5193
  250POPC  H13S16427   2.832   5.625   4.337  1.1398 -2.6593  0.2322
  250POPC  C21416428   2.984   5.782   4.330 -0.2799 -0.4620  0.3514
  250POPC  H14R16429   2.913   5.828   4.402  0.3136 -1.6410  1.7404
  250POPC  H14S16430   3.007   5.857   4.251 -1.0392  0.5918  1.1007
  250POPC  C21516431   3.112   5.758   4.412  0.3996  0.5884 -0.9495
  250POPC  H15R16432   3.205   5.733   4.358  1.7561  0.7450  1.1731
  250POPC  H15S16433   3.081   5.679   4.484  1.0609  2.3359  1.3713
  250POPC  C21616434   3.138   5.881   4.499  0.3783  0.4299  0.2812
  250POPC  H16R16435   3.050   5.911   4.559  0.1727  1.3314 -0.4442
  250POPC  H16S16436   3.159   5.968   4.433  1.1528 -1.0554 -1.5189
  250POPC  C21716437   3.247   5.860   4.596 -0.1632  0.4353 -0.2169
  250POPC  H17R16438   3.332   5.813   4.542  1.3673  0.3813  2.1255
  250POPC  H17S16439   3.196   5.794   4.668  0.4642 -1.3677 -1.3511
  250POPC  C21816440   3.297   5.970   4.676 -0.4447 -0.6474  0.4578
  250POPC  H18R16441   3.371   5.929   4.747 -0.8369 -0.3619  1.0380
  250POPC  H18S16442   3.213   6.012   4.736 -0.5535  0.5235 -0.4700
  250POPC  H18T16443   3.343   6.049   4.614 -1.0159  0.8596  1.8849
  250POPC   C3316444   3.388   5.854   3.605  0.3178  0.5879 -0.9296
  250POPC   H3X16445   3.388   5.747   3.633  3.3529  0.8032  0.2738
  250POPC   H3Y16446   3.281   5.886   3.598  0.4978  0.8708 -4.3628
  250POPC   C3416447   3.466   5.934   3.708  0.1609 -0.0927 -0.3948
  250POPC   H4X16448   3.467   6.042   3.685  1.9203 -0.1266 -0.6116
  250POPC   H4Y16449   3.574   5.911   3.709  0.3159  0.5765  1.1687
  250POPC   C3516450   3.408   5.917   3.849 -0.0292  0.9330 -0.2344
  250POPC   H5X16451   3.407   5.808   3.868  2.3908  0.5868 -1.5751
  250POPC   H5Y16452   3.317   5.974   3.874  0.6419  1.6217  0.7172
  250POPC   C3616453   3.505   5.977   3.954  0.5217  0.3942  0.1396
  250POPC   H6X16454   3.497   6.088   3.948  0.0977  0.4492  1.3683
  250POPC   H6Y16455   3.605   5.935   3.930 -0.3236 -1.4430 -0.2912
  250POPC   C3716456   3.454   5.931   4.093 -0.3853 -0.5150 -0.2945
  250POPC   H7X16457   3.545   5.935   4.157  0.1524 -0.1939 -1.0740
  250POPC   H7Y16458   3.421   5.825   4.091  2.2076 -1.3947 -0.2612
  250POPC   C3816459   3.336   6.012   4.145 -0.0685 -0.0679  0.0207
  250POPC   H8X16460   3.311   5.983   4.250 -0.4446 -0.8567 -0.2780
  250POPC   H8Y16461   3.239   6.005   4.091  0.2074  0.7302 -0.6078
  250POPC   C3916462   3.380   6.153   4.174 -0.0246  0.6174  0.1533
  250POPC   H9X16463   3.362   6.217   4.085  0.6001  1.8173  0.8604
  250POPC   H9Y16464   3.490   6.152   4.190 -0.3599 -0.1630  3.0236
  250POPC  C31016465   3.312   6.213   4.295  0.0423 -0.0157 -0.1207
  250POPC  H10X16466   3.366   6.305   4.326  1.2688 -1.2370  1.5860
  250POPC  H10Y16467   3.338   6.150   4.382 -0.4717 -0.9399 -0.6245
  250POPC  C31116468   3.158   6.220   4.273 -0.2339  0.6351 -0.0974
  250POPC  H11X16469   3.114   6.121   4.299  4.3965 -1.6317  0.0505
  250POPC  H11Y16470   3.135   6.239   4.166 -2.3025 -0.5402  0.0805
  250POPC  C31216471   3.095   6.336   4.356  0.0741 -0.3388 -0.4497
  250POPC  H12X16472   2.991   6.350   4.319 -2.3964 -0.8593  5.2402
  250POPC  H12Y16473   3.150   6.431   4.335 -1.1953  0.6764  0.6535
  250POPC  C31316474   3.071   6.305   4.505 -0.8873 -0.4215 -0.5793
  250POPC  H13X16475   3.163   6.283   4.563 -0.1868  0.9545 -1.1316
  250POPC  H13Y16476   3.011   6.211   4.509  0.4597 -1.2809  0.0487
  250POPC  C31416477   3.001   6.421   4.577 -0.2296  0.2067  0.0084
  250POPC  H14X16478   2.972   6.383   4.678 -0.3357 -0.1698 -0.1639
  250POPC  H14Y16479   2.916   6.462   4.519  0.4945  1.0878 -0.4521
  250POPC  C31516480   3.087   0.093   4.626 -0.5444 -0.2769  0.8427
  250POPC  H15X16481   3.110   0.156   4.538 -1.2776  0.3215  1.0700
  250POPC  H15Y16482   3.185   0.065   4.670 -0.1278 -2.5502 -1.2990
  250POPC  C31616483   3.022   0.184   4.734 -0.1383  0.3815 -0.5860
  250POPC  H16X16484   3.048   0.150   4.837 -0.1568  3.0323  0.3655
  250POPC  H16Y16485   2.911   0.189   4.732 -0.1441  0.0288 -2.2607
  250POPC  H16Z16486   3.060   0.285   4.708 -0.1941 -0.2261 -3.3142
  251POPC     N16487   3.583   0.047   2.936  0.1257 -0.4126  0.6785
  251POPC   C1216488   3.512   0.135   3.037 -0.0197  0.8069  0.4551
  251POPC  H12A16489   3.580   0.167   3.114  1.8338 -2.1016  0.1807
  251POPC  H12B16490   3.429   0.084   3.082 -1.0390  0.5902 -1.5702
  251POPC   C1316491   3.669   6.388   3.001 -0.9303  0.0885 -0.3257
  251POPC  H13A16492   3.761   6.365   2.948 -0.1604  0.1827  0.9161
  251POPC  H13B16493   3.711   6.420   3.095  2.1298 -0.2538 -1.4307
  251POPC  H13C16494   3.617   6.295   3.016  1.5065 -1.0310  1.9714
  251POPC   C1416495   3.478   6.429   2.855  0.0127  0.3519 -0.1870
  251POPC  H14A16496   3.395   6.497   2.856 -0.1933  0.0955  0.3530
  251POPC  H14B16497   3.502   6.407   2.752 -0.3160 -1.3846  0.0686
  251POPC  H14C16498   3.447   6.332   2.892 -0.7805  0.7337  0.1590
  251POPC   C1516499   3.675   0.123   2.845 -0.1184 -0.6575  0.0271
  251POPC  H15A16500   3.618   0.183   2.775  1.4445 -2.6231 -3.1888
  251POPC  H15B16501   3.730   0.054   2.782  1.2728 -0.7798  1.3252
  251POPC  H15C16502   3.739   0.182   2.908 -5.4046  3.7433  2.0964
  251POPC   C1116503   3.444   0.262   2.986  0.0719  0.4614  0.2015
  251POPC  H11A16504   3.520   0.324   2.933 -0.6663 -0.6695 -2.3601
  251POPC  H11B16505   3.405   0.320   3.072 -2.8980 -0.6819 -0.2643
  251POPC     P16506   3.186   0.202   2.934  0.0671  0.0405 -0.2486
  251POPC   O1316507   3.140   0.098   2.843  0.0969 -0.4924  0.6406
  251POPC   O1416508   3.103   0.320   2.955  0.2471  0.1674  0.5777
  251POPC   O1216509   3.338   0.233   2.894 -0.1548 -0.3101  0.2307
  251POPC   O1116510   3.209   0.128   3.079  0.7533 -0.4963  0.9807
  251POPC    C116511   3.129   0.166   3.194 -0.3540  0.0057  0.4873
  251POPC    HA16512   3.050   0.087   3.201 -0.3279 -0.0746 -0.0719
  251POPC    HB16513   3.088   0.268   3.181 -0.5245 -0.1179  0.0272
  251POPC    C216514   3.216   0.164   3.325  0.6998 -0.6923  0.7494
  251POPC    HS16515   3.297   0.240   3.318  1.5320 -1.4835  1.4719
  251POPC   O2116516   3.273   0.033   3.338  0.1618 -0.0580 -0.3492
  251POPC   C2116517   3.375   0.033   3.425 -0.2290  0.5395  0.7023
  251POPC   O2216518   3.435   0.128   3.467 -0.3939 -0.0239  0.0817
  251POPC   C2216519   3.409   6.329   3.456 -0.2443  0.4863 -0.1121
  251POPC   H2R16520   3.414   6.275   3.359 -2.8114 -0.0102 -0.0513
  251POPC   H2S16521   3.321   6.287   3.510  0.2928  0.1603  0.5217
  251POPC    C316522   3.124   0.202   3.448 -0.0029 -0.7547 -0.1180
  251POPC    HX16523   3.047   0.125   3.471 -1.0777  0.1900 -0.4516
  251POPC    HY16524   3.072   0.299   3.429  3.9842  1.4836 -0.6272
  251POPC   O3116525   3.199   0.212   3.571  0.5848 -0.1321 -0.0669
  251POPC   C3116526   3.251   0.338   3.584  0.3688  0.9030  0.2518
  251POPC   O3216527   3.241   0.430   3.503 -0.1252 -0.3185 -0.4390
  251POPC   C3216528   3.306   0.357   3.724 -0.2144  0.7789 -0.2274
  251POPC   H2X16529   3.383   0.279   3.746 -0.4509  0.0876 -1.7151
  251POPC   H2Y16530   3.216   0.350   3.788 -1.9728 -0.2738 -2.6649
  251POPC   C2316531   3.537   6.319   3.541 -0.6115  0.1396 -0.1075
  251POPC   H3R16532   3.615   6.393   3.513 -1.1141  0.8925  0.4493
  251POPC   H3S16533   3.578   6.216   3.532 -0.3737  0.3783 -2.0966
  251POPC   C2416534   3.523   6.344   3.689  0.0987  0.8090 -0.9647
  251POPC   H4R16535   3.453   6.270   3.734  0.0554  2.1948  1.4121
  251POPC   H4S16536   3.482   6.445   3.709 -0.2690  0.1368  2.3701
  251POPC   C2516537   3.649   6.328   3.775 -1.0404 -0.4640  0.4124
  251POPC   H5R16538   3.739   6.369   3.725 -0.3695 -0.0909  1.8753
  251POPC   H5S16539   3.663   6.218   3.768  1.4628 -0.2485  1.2029
  251POPC   C2616540   3.639   6.378   3.920 -0.4468 -0.1415 -0.4070
  251POPC   H6R16541   3.549   6.324   3.958 -0.4944  1.0223  1.1950
  251POPC   H6S16542   3.617   6.487   3.923 -0.2748 -0.0654 -1.5991
  251POPC   C2716543   3.762   6.344   4.010  0.1405 -0.3715  0.2850
  251POPC   H7R16544   3.841   6.410   3.967 -0.2600 -0.3965 -0.5144
  251POPC   H7S16545   3.789   6.238   3.991 -0.9200 -0.7107  0.6400
  251POPC   C2816546   3.753   6.377   4.156 -0.1565 -0.0802 -0.1956
  251POPC   H8R16547   3.682   6.313   4.212 -0.6713 -1.1674 -2.0163
  251POPC   H8S16548   3.728   6.485   4.165  0.8592  0.0388  1.6792
  251POPC   C2916549   3.888   6.362   4.216 -0.6502  0.3150  0.4017
  251POPC   H9116550   3.956   6.443   4.187  0.0481 -0.8550 -1.4106
  251POPC  C21016551   3.946   6.260   4.285 -0.6263 -0.3040  0.0322
  251POPC  H10116552   4.044   6.280   4.332  0.3144 -0.2848 -1.8381
  251POPC  C21116553   3.875   6.135   4.318  0.2313  1.0522  0.8851
  251POPC  H11R16554   3.926   6.046   4.277 -1.3532  1.8062 -3.2429
  251POPC  H11S16555   3.781   6.135   4.259 -0.5490  0.7646  2.0859
  251POPC  C21216556   3.835   6.129   4.465  0.6360  0.4244  0.2038
  251POPC  H12R16557   3.766   6.215   4.482 -1.5190 -1.2213  0.2659
  251POPC  H12S16558   3.922   6.128   4.534 -0.1729 -0.8084  1.2668
  251POPC  C21316559   3.752   6.002   4.491  0.1131 -0.7123 -0.1804
  251POPC  H13R16560   3.817   5.914   4.472  1.9318  0.5585 -0.0413
  251POPC  H13S16561   3.660   6.011   4.430 -0.7861  1.6632  1.4045
  251POPC  C21416562   3.697   5.980   4.631 -0.4866 -0.5992  0.9370
  251POPC  H14R16563   3.626   5.895   4.620  1.5336 -2.2635  0.1598
  251POPC  H14S16564   3.640   6.073   4.652  0.2884 -0.2340  1.4476
  251POPC  C21516565   3.805   5.957   4.730  0.1157 -0.5328 -0.2009
  251POPC  H15R16566   3.881   6.038   4.726 -0.1764  0.0269  2.8562
  251POPC  H15S16567   3.846   5.855   4.714 -3.8360 -2.0586 -1.8508
  251POPC  C21616568   3.753   5.946   4.879  0.0049 -0.7647 -0.3398
  251POPC  H16R16569   3.730   5.839   4.893  0.7924 -0.8351  0.5640
  251POPC  H16S16570   3.661   6.008   4.886  1.7346  1.9374 -0.0455
  251POPC  C21716571   3.860   6.002   4.980 -0.0963 -0.2458  0.7084
  251POPC  H17R16572   3.959   5.972   4.940 -0.7223 -0.1920 -0.9452
  251POPC  H17S16573   3.840   5.961   5.082  0.8843  0.9871  1.4273
  251POPC  C21816574   3.864   6.159   4.988  0.4846  0.3359  0.3884
  251POPC  H18R16575   3.769   6.193   5.034 -0.0240 -0.5538  0.0234
  251POPC  H18S16576   3.864   6.198   4.884  0.5129 -0.1107  0.2172
  251POPC  H18T16577   3.959   6.184   5.040  0.2748 -1.0596  1.5047
  251POPC   C3316578   3.354   0.500   3.743 -0.5456 -0.0152 -0.8083
  251POPC   H3X16579   3.289   0.578   3.699  0.0850  0.2661 -1.2522
  251POPC   H3Y16580   3.454   0.516   3.697  0.2024  1.4123  1.2136
  251POPC   C3416581   3.365   0.540   3.892  0.0762  0.0838 -0.1796
  251POPC   H4X16582   3.445   0.476   3.935  1.0299  0.1552 -1.7653
  251POPC   H4Y16583   3.272   0.512   3.947 -0.7081  0.0473 -1.4729
  251POPC   C3516584   3.411   0.688   3.915 -0.0539  0.0040 -0.4371
  251POPC   H5X16585   3.349   0.769   3.871 -0.0318 -0.0807 -0.6254
  251POPC   H5Y16586   3.515   0.705   3.880 -0.5702  1.3348 -1.3993
  251POPC   C3616587   3.411   0.718   4.067 -0.1892 -0.2012 -0.0883
  251POPC   H6X16588   3.327   0.669   4.120  1.8196 -1.9396  1.6245
  251POPC   H6Y16589   3.396   0.828   4.073 -1.0543 -0.3470  0.5539
  251POPC   C3716590   3.552   0.679   4.127  0.3369 -0.3084 -1.0923
  251POPC   H7X16591   3.629   0.713   4.056 -1.2618  3.4593 -1.2553
  251POPC   H7Y16592   3.559   0.570   4.146 -0.0531 -0.2670 -0.6745
  251POPC   C3816593   3.561   0.761   4.260 -0.0948  0.4980  0.7568
  251POPC   H8X16594   3.468   0.759   4.320 -0.7693 -0.9914 -0.2975
  251POPC   H8Y16595   3.570   0.870   4.236 -0.9326  0.6829  1.2567
  251POPC   C3916596   3.680   0.730   4.337 -0.0547  0.0500  0.2040
  251POPC   H9X16597   3.760   0.719   4.261  0.5297 -2.7164  1.0977
  251POPC   H9Y16598   3.681   0.629   4.383 -0.9804 -1.8092 -3.4441
  251POPC  C31016599   3.721   0.833   4.452 -0.6146  0.1855  0.1647
  251POPC  H10X16600   3.716   0.930   4.398 -0.4771 -0.6595 -1.4471
  251POPC  H10Y16601   3.831   0.820   4.468 -0.3052  1.6797 -0.5440
  251POPC  C31116602   3.640   0.830   4.580 -0.3391 -0.4644 -0.2953
  251POPC  H11X16603   3.633   0.720   4.593 -2.9268 -0.2272  0.8761
  251POPC  H11Y16604   3.538   0.866   4.553 -0.0579  1.4697  1.0316
  251POPC  C31216605   3.698   0.901   4.704  0.4055 -0.4288  0.6448
  251POPC  H12X16606   3.617   0.904   4.780 -0.7674  2.7314 -0.5675
  251POPC  H12Y16607   3.739   1.004   4.694  2.9948 -1.0612  3.2669
  251POPC  C31316608   3.810   0.820   4.773  0.3899 -0.1022 -0.4053
  251POPC  H13X16609   3.911   0.846   4.735  0.7864 -0.0055  0.7058
  251POPC  H13Y16610   3.808   0.713   4.740  0.6526  0.8641 -4.0583
  251POPC  C31416611   3.809   0.822   4.926  0.1092  0.6461  0.1660
  251POPC  H14X16612   3.801   0.920   4.979  1.1989  0.0906  1.4244
  251POPC  H14Y16613   3.905   0.776   4.960  1.9427  3.1718 -1.2848
  251POPC  C31516614   3.696   0.733   4.989  0.3321 -0.4455 -0.8614
  251POPC  H15X16615   3.711   0.628   4.954  0.9581 -0.3517 -0.8914
  251POPC  H15Y16616   3.599   0.770   4.951  0.0863 -0.8597 -0.6406
  251POPC  C31616617   3.701   0.735   5.141  0.2941 -0.3088 -0.0942
  251POPC  H16X16618   3.795   0.686   5.175  1.2305  2.1334  1.0429
  251POPC  H16Y16619   3.620   0.673   5.184 -0.2554  0.6073  0.2221
  251POPC  H16Z16620   3.698   0.833   5.192 -0.0715 -0.0464 -0.6118
  252POPC     N16621   3.807   4.074   2.411 -0.3800  0.2905 -0.6385
  252POPC   C1216622   3.881   3.960   2.482 -0.7486  0.1328 -0.5979
  252POPC  H12A16623   3.971   3.996   2.529 -0.6474 -1.6524  0.6780
  252POPC  H12B16624   3.920   3.894   2.406 -0.3787 -0.1754 -0.1407
  252POPC   C1316625   3.767   4.167   2.526  0.2517 -1.2845  0.0437
  252POPC  H13A16626   3.696   4.238   2.486  1.2334  0.0963  0.6746
  252POPC  H13B16627   3.725   4.124   2.615  0.9412 -0.6246  0.6968
  252POPC  H13C16628   3.861   4.217   2.544 -0.3269  1.1336 -2.8346
  252POPC   C1416629   3.913   4.134   2.325 -0.0470  0.6052  0.3964
  252POPC  H14A16630   3.867   4.212   2.266 -1.4006 -0.2054  0.3277
  252POPC  H14B16631   3.986   4.174   2.395 -0.8864  1.6120  0.7428
  252POPC  H14C16632   3.957   4.064   2.257 -1.4610  0.1322 -0.0730
  252POPC   C1516633   3.698   4.022   2.324  0.0616 -0.3994  0.2652
  252POPC  H15A16634   3.728   3.960   2.241 -0.0414  1.8520 -1.5461
  252POPC  H15B16635   3.633   4.096   2.281  0.5428 -0.9138 -1.4552
  252POPC  H15C16636   3.631   3.962   2.383  1.1115  0.1958  2.1461
  252POPC   C1116637   3.805   3.872   2.586  0.3230 -0.4420  0.3805
  252POPC  H11A16638   3.765   3.938   2.666 -1.8530 -0.8751 -0.2944
  252POPC  H11B16639   3.871   3.792   2.625  1.5149  0.0374 -0.5742
  252POPC     P16640   3.705   3.678   2.445  0.0613 -0.2765 -0.3484
  252POPC   O1316641   3.797   3.700   2.336 -0.3877 -0.3288 -0.5904
  252POPC   O1416642   3.571   3.632   2.402  0.3060 -0.2987  0.6849
  252POPC   O1216643   3.689   3.806   2.532 -0.3871 -0.2465 -0.1408
  252POPC   O1116644   3.772   3.575   2.545  0.6955 -0.6815  0.4660
  252POPC    C116645   3.738   3.559   2.683 -0.4397  0.5718  0.9777
  252POPC    HA16646   3.688   3.649   2.724 -1.7651 -1.3635  3.9081
  252POPC    HB16647   3.826   3.542   2.748 -0.6609  0.3970  1.2363
  252POPC    C216648   3.640   3.447   2.702 -0.2678  0.2630  1.4071
  252POPC    HS16649   3.565   3.440   2.620  1.0232 -1.1090  0.2783
  252POPC   O2116650   3.569   3.465   2.823  0.2685  0.6456 -0.3078
  252POPC   C2116651   3.457   3.404   2.842  0.6441  0.3152 -0.7085
  252POPC   O2216652   3.411   3.306   2.785 -0.2739  0.5733 -0.3719
  252POPC   C2216653   3.387   3.456   2.963  0.0431 -0.0381 -0.1619
  252POPC   H2R16654   3.281   3.423   2.962  0.0928 -0.2123 -1.3682
  252POPC   H2S16655   3.402   3.566   2.956 -1.7715  0.1545 -2.8133
  252POPC    C316656   3.703   3.302   2.689  0.7021  0.6568  0.3465
  252POPC    HX16657   3.727   3.288   2.582 -1.1368 -0.1408  0.0014
  252POPC    HY16658   3.629   3.221   2.703  0.7070  0.7276  0.7993
  252POPC   O3116659   3.823   3.308   2.767 -0.5467  0.7174  0.4046
  252POPC   C3116660   3.820   3.238   2.884 -0.1130  0.5195 -0.2494
  252POPC   O3216661   3.729   3.169   2.922 -0.9120 -0.2843  0.1749
  252POPC   C3216662   3.950   3.275   2.960 -0.2436 -0.0297  0.0201
  252POPC   H2X16663   3.990   3.375   2.933  1.2134 -0.7676 -0.6396
  252POPC   H2Y16664   4.022   3.198   2.925 -1.0086 -0.8927  0.3102
  252POPC   C2316665   3.454   3.408   3.096  0.0236  0.5531  0.0816
  252POPC   H3R16666   3.423   3.485   3.171 -0.0052 -0.7889  1.5017
  252POPC   H3S16667   3.565   3.410   3.092  0.0710  1.2968  1.2378
  252POPC   C2416668   3.410   3.272   3.143  0.0323 -0.0682 -0.0285
  252POPC   H4R16669   3.476   3.198   3.094  0.8614  0.4255  0.3127
  252POPC   H4S16670   3.307   3.241   3.115  0.3553 -1.3711  0.2054
  252POPC   C2516671   3.436   3.255   3.287  0.0989 -0.1860 -0.2366
  252POPC   H5R16672   3.387   3.324   3.359 -0.7231  0.2564 -1.2097
  252POPC   H5S16673   3.545   3.260   3.311 -0.0649  2.0368  0.3011
  252POPC   C2616674   3.403   3.115   3.338 -0.2553  0.2792  0.1404
  252POPC   H6R16675   3.460   3.040   3.279 -0.1912 -0.1125  0.6868
  252POPC   H6S16676   3.298   3.081   3.327  0.8147 -2.8966 -1.3675
  252POPC   C2716677   3.438   3.102   3.491 -0.4006  0.2788 -0.1044
  252POPC   H7R16678   3.389   3.176   3.557 -1.5563 -0.0450 -0.5603
  252POPC   H7S16679   3.549   3.107   3.501 -0.2635 -2.4777  0.8082
  252POPC   C2816680   3.408   2.963   3.545  0.9220 -0.6764 -0.1615
  252POPC   H8R16681   3.448   2.958   3.648  1.7722  0.6233 -0.3970
  252POPC   H8S16682   3.453   2.875   3.494 -2.0866 -2.3861 -0.0534
  252POPC   C2916683   3.256   2.936   3.541  0.2361 -0.0445 -0.6650
  252POPC   H9116684   3.205   2.994   3.462  0.3662 -1.4536 -1.8240
  252POPC  C21016685   3.185   2.876   3.635  0.2024 -0.3514 -1.2400
  252POPC  H10116686   3.076   2.872   3.634  0.0393 -0.4296  2.5493
  252POPC  C21116687   3.228   2.804   3.758  0.0150  0.3337 -0.1719
  252POPC  H11R16688   3.338   2.800   3.774 -0.2998 -1.8670  2.1178
  252POPC  H11S16689   3.199   2.697   3.750 -2.8693  1.1178 -1.7455
  252POPC  C21216690   3.144   2.847   3.889 -0.0498  0.1640 -0.2536
  252POPC  H12R16691   3.036   2.829   3.870 -0.2387  0.8772  0.1155
  252POPC  H12S16692   3.150   2.957   3.902  1.2465  0.0256  0.4854
  252POPC  C21316693   3.190   2.777   4.029  0.7920 -0.6873 -0.0415
  252POPC  H13R16694   3.288   2.823   4.052  0.5645 -0.4134  0.3888
  252POPC  H13S16695   3.199   2.667   4.015  1.1625 -0.6001 -0.5284
  252POPC  C21416696   3.096   2.815   4.151 -0.1880  0.5314  0.0152
  252POPC  H14R16697   2.989   2.795   4.129 -0.6751  0.4171  2.2460
  252POPC  H14S16698   3.109   2.923   4.171 -0.7507  0.5457  0.3063
  252POPC  C21516699   3.135   2.744   4.286 -0.1578 -0.3478 -0.1068
  252POPC  H15R16700   3.035   2.746   4.335 -0.1163 -2.0329  0.0967
  252POPC  H15S16701   3.210   2.808   4.337 -0.1671 -0.3890 -0.0414
  252POPC  C21616702   3.182   2.605   4.284  0.4876 -0.2300 -0.1587
  252POPC  H16R16703   3.278   2.608   4.227 -0.1890  0.7223 -1.2951
  252POPC  H16S16704   3.101   2.544   4.239 -1.2268  0.8702  1.3015
  252POPC  C21716705   3.208   2.545   4.428 -0.2987 -0.0798  0.3258
  252POPC  H17R16706   3.231   2.437   4.413  0.1768  0.1809 -0.8898
  252POPC  H17S16707   3.120   2.548   4.496 -1.3294 -2.3520 -0.8069
  252POPC  C21816708   3.335   2.611   4.498  0.3609  0.1842  0.0404
  252POPC  H18R16709   3.312   2.714   4.533  0.0972  0.4949 -1.0246
  252POPC  H18S16710   3.425   2.599   4.435  1.3331 -0.8993  1.5385
  252POPC  H18T16711   3.351   2.557   4.594  2.6203 -0.6104 -0.7238
  252POPC   C3316712   3.951   3.260   3.118  0.7433  0.0711 -0.4409
  252POPC   H3X16713   4.052   3.264   3.163  0.3422  0.4251  0.4734
  252POPC   H3Y16714   3.913   3.162   3.156 -0.6228  0.1031 -1.6528
  252POPC   C3416715   3.867   3.377   3.186 -0.3799 -0.2995  0.8227
  252POPC   H4X16716   3.762   3.366   3.152  0.3631 -0.5883 -1.5082
  252POPC   H4Y16717   3.915   3.471   3.152 -0.6712 -0.4903 -0.1209
  252POPC   C3516718   3.878   3.373   3.337 -0.0234  0.1816 -0.6387
  252POPC   H5X16719   3.983   3.385   3.370 -0.3290  0.4936  0.2460
  252POPC   H5Y16720   3.829   3.277   3.367 -0.7046  1.3274  2.2466
  252POPC   C3616721   3.816   3.500   3.391  0.1997 -0.4691  0.4118
  252POPC   H6X16722   3.705   3.493   3.379  0.1001  1.7392 -0.6034
  252POPC   H6Y16723   3.843   3.577   3.314 -0.1695  0.8962  1.6035
  252POPC   C3716724   3.855   3.545   3.538 -0.2597  0.8333  0.5567
  252POPC   H7X16725   3.818   3.649   3.551 -1.2173  0.8547 -1.8324
  252POPC   H7Y16726   3.966   3.549   3.532 -0.2787  0.0311 -0.5034
  252POPC   C3816727   3.807   3.452   3.647  0.3407  0.4806  0.5512
  252POPC   H8X16728   3.857   3.353   3.636 -0.3272  0.0624  1.2154
  252POPC   H8Y16729   3.698   3.437   3.631  0.0028  1.1127  2.0860
  252POPC   C3916730   3.841   3.499   3.788 -0.4835  0.3487 -0.0329
  252POPC   H9X16731   3.793   3.593   3.823  0.4293  0.5595  0.7183
  252POPC   H9Y16732   3.951   3.506   3.804 -0.6614 -0.4203  1.7858
  252POPC  C31016733   3.792   3.401   3.897  0.4784 -0.0750 -0.0119
  252POPC  H10X16734   3.823   3.302   3.857  3.1579  0.8980 -0.6090
  252POPC  H10Y16735   3.682   3.418   3.897  0.3554 -0.7752 -0.9025
  252POPC  C31116736   3.856   3.413   4.034 -0.0998  0.0071 -0.1222
  252POPC  H11X16737   3.874   3.520   4.059  1.5899  0.2594 -2.1020
  252POPC  H11Y16738   3.951   3.354   4.033 -1.1671 -1.8636 -2.6279
  252POPC  C31216739   3.779   3.342   4.147 -0.4414  0.8472 -0.2253
  252POPC  H12X16740   3.827   3.339   4.247  0.7040 -0.3437 -0.7703
  252POPC  H12Y16741   3.769   3.238   4.109  0.3013  0.6898  0.0053
  252POPC  C31316742   3.633   3.398   4.170 -0.1797  0.2768 -0.4904
  252POPC  H13X16743   3.567   3.321   4.217 -1.0533 -0.9880 -3.5315
  252POPC  H13Y16744   3.587   3.424   4.072 -1.9393 -1.0602 -0.0776
  252POPC  C31416745   3.625   3.541   4.240 -0.4693  0.1918  0.2259
  252POPC  H14X16746   3.700   3.602   4.185 -1.0537  2.1363  1.4894
  252POPC  H14Y16747   3.652   3.524   4.347 -2.7634  1.6858  1.1146
  252POPC  C31516748   3.495   3.610   4.228 -0.0024  0.5090  0.6471
  252POPC  H15X16749   3.448   3.595   4.129  2.4763 -0.3334 -0.4783
  252POPC  H15Y16750   3.508   3.720   4.236 -1.6441  0.9870 -2.0344
  252POPC  C31616751   3.395   3.572   4.338 -0.4659  0.1132  0.3444
  252POPC  H16X16752   3.454   3.588   4.431  1.5494  0.4824 -0.9301
  252POPC  H16Y16753   3.368   3.465   4.326 -0.7740 -0.3139  3.8398
  252POPC  H16Z16754   3.305   3.635   4.348 -0.6382 -0.2578  1.3502
  253POPC     N16755   2.573   6.413   3.179 -0.2505 -0.6095 -0.0000
  253POPC   C1216756   2.695   0.058   3.151 -0.1498 -0.2584  0.1610
  253POPC  H12A16757   2.656   0.137   3.089 -0.1554  1.3604  2.1076
  253POPC  H12B16758   2.775  -0.002   3.109 -0.9511 -0.7860 -0.6274
  253POPC   C1316759   2.611   6.334   3.301 -0.0347 -0.1449 -0.8254
  253POPC  H13A16760   2.690   6.263   3.283 -1.6257 -3.8029  4.2643
  253POPC  H13B16761   2.633   6.390   3.391 -0.3556 -2.9389  1.1455
  253POPC  H13C16762   2.524   6.282   3.340 -0.4950  1.2517  0.0658
  253POPC   C1416763   2.449   0.052   3.196 -0.1577 -0.3659 -0.2835
  253POPC  H14A16764   2.464   0.107   3.288 -1.4336  2.2870 -1.5235
  253POPC  H14B16765   2.422   0.114   3.111 -3.3144 -0.2641  0.6486
  253POPC  H14C16766   2.364  -0.003   3.232  0.3842 -0.7695  0.3959
  253POPC   C1516767   2.563   6.318   3.059  0.0994  0.7370  0.0614
  253POPC  H15A16768   2.556   6.361   2.960  0.6518 -2.0837 -1.3158
  253POPC  H15B16769   2.474   6.256   3.061 -1.4619  2.8891  1.4974
  253POPC  H15C16770   2.649   6.252   3.060  1.4446  2.4350  0.5373
  253POPC   C1116771   2.749   0.139   3.276 -0.4113 -0.1214  0.4170
  253POPC  H11A16772   2.833   0.207   3.250 -0.0604  0.7316  3.4723
  253POPC  H11B16773   2.798   0.064   3.341  2.0238  0.9399 -0.0952
  253POPC     P16774   2.683   0.275   3.491 -0.0136  0.2537 -0.8137
  253POPC   O1316775   2.551   0.307   3.547 -0.4394  0.1445 -0.2462
  253POPC   O1416776   2.789   0.379   3.463  0.5480 -0.1061 -0.2639
  253POPC   O1216777   2.647   0.203   3.355  0.1531 -0.1606  0.5296
  253POPC   O1116778   2.756   0.156   3.565  0.2426  0.4225  0.6678
  253POPC    C116779   2.803   0.171   3.695  0.5735 -0.2006 -0.7141
  253POPC    HA16780   2.834   0.277   3.706 -0.4558  0.0866 -0.5410
  253POPC    HB16781   2.892   0.107   3.714  0.5534  0.2346  1.1015
  253POPC    C216782   2.696   0.117   3.791  0.0591 -0.4511 -0.2697
  253POPC    HS16783   2.593   0.153   3.771  0.3241  0.0791 -0.7241
  253POPC   O2116784   2.747   0.135   3.927  0.6260  0.1634  0.0009
  253POPC   C2116785   2.681   0.229   4.003 -0.5785 -0.9686 -0.2134
  253POPC   O2216786   2.572   0.274   3.974 -0.0926 -0.5755 -0.1509
  253POPC   C2216787   2.751   0.245   4.137  0.1254  1.3501  0.5001
  253POPC   H2R16788   2.818   0.158   4.151  1.0447  1.7434 -1.1325
  253POPC   H2S16789   2.675   0.239   4.218  2.5583  0.1801  2.8127
  253POPC    C316790   2.678   6.408   3.780 -0.3677 -1.0562 -0.5146
  253POPC    HX16791   2.764   6.345   3.811  0.0496  0.6297  2.1142
  253POPC    HY16792   2.657   6.382   3.674  0.5686 -0.1957 -0.9212
  253POPC   O3116793   2.577   6.362   3.864  0.4856 -0.3005 -0.2642
  253POPC   C3116794   2.454   6.370   3.812 -0.1563 -0.1610  0.2044
  253POPC   O3216795   2.427   6.391   3.698 -0.0099  0.6884 -0.1096
  253POPC   C3216796   2.357   6.328   3.924 -0.4016 -0.1370 -0.6865
  253POPC   H2X16797   2.379   6.223   3.953  0.7936  0.4212  0.5792
  253POPC   H2Y16798   2.250   6.328   3.895 -0.8122  1.8596  0.6585
  253POPC   C2316799   2.838   0.371   4.152  0.4504  0.4333  0.2782
  253POPC   H3R16800   2.764   0.453   4.164 -0.8661 -0.4694 -1.2286
  253POPC   H3S16801   2.913   0.388   4.073 -0.3723 -0.1839 -0.6636
  253POPC   C2416802   2.918   0.359   4.286  0.0423  0.5341  0.8841
  253POPC   H4R16803   2.979   0.267   4.275 -0.4677  0.3878 -1.2036
  253POPC   H4S16804   2.848   0.325   4.366 -1.7805 -3.4515 -2.0703
  253POPC   C2516805   3.003   0.482   4.321  1.4188 -0.0513 -0.2666
  253POPC   H5R16806   3.090   0.486   4.251  0.3751  0.2465 -1.5965
  253POPC   H5S16807   3.027   0.472   4.429  0.3331  0.3375  0.0201
  253POPC   C2616808   2.946   0.620   4.299 -0.6047  0.0716  0.4646
  253POPC   H6R16809   2.855   0.629   4.362 -0.9915  2.8286 -0.3469
  253POPC   H6S16810   2.903   0.628   4.197 -1.5496  0.3512  0.8701
  253POPC   C2716811   3.067   0.721   4.318 -0.8459  0.0578 -0.3233
  253POPC   H7R16812   3.153   0.675   4.265 -1.3924  2.2143 -3.3562
  253POPC   H7S16813   3.084   0.725   4.427 -1.8982  2.2916 -0.1884
  253POPC   C2816814   3.039   0.863   4.267 -0.0913  0.0127 -0.1414
  253POPC   H8R16815   3.130   0.925   4.285  0.0198  0.1331 -1.0595
  253POPC   H8S16816   2.960   0.903   4.333  0.8483 -0.8856  1.5944
  253POPC   C2916817   2.998   0.869   4.123 -0.4822  0.3688  0.0177
  253POPC   H9116818   2.984   0.774   4.071  1.5285 -0.3600  0.7237
  253POPC  C21016819   2.978   0.982   4.055 -0.1977 -0.0721  0.0478
  253POPC  H10116820   2.947   0.972   3.950  0.7364 -5.3824 -0.0012
  253POPC  C21116821   3.006   1.122   4.099 -0.6432 -0.5319 -0.5433
  253POPC  H11R16822   3.094   1.167   4.048 -1.7030 -0.0423 -2.0060
  253POPC  H11S16823   3.052   1.112   4.200 -3.1088 -1.2149  0.5810
  253POPC  C21216824   2.895   1.219   4.134  0.6761 -0.7487  0.2367
  253POPC  H12R16825   2.817   1.155   4.181 -0.7786  0.5503 -0.3217
  253POPC  H12S16826   2.858   1.267   4.041  0.4366  1.4271  1.3866
  253POPC  C21316827   2.929   1.332   4.229 -0.2504  0.7297 -0.8246
  253POPC  H13R16828   2.847   1.408   4.231  1.1668  2.3186  0.0791
  253POPC  H13S16829   3.027   1.375   4.198  0.2992 -0.2738 -0.4962
  253POPC  C21416830   2.937   1.282   4.375  0.0594 -0.3095  0.3040
  253POPC  H14R16831   2.998   1.190   4.385 -0.9356 -0.7888  2.3215
  253POPC  H14S16832   2.838   1.250   4.413 -0.3432  0.3611 -0.1552
  253POPC  C21516833   3.001   1.385   4.473 -0.8042  1.3351  0.0601
  253POPC  H15R16834   3.108   1.393   4.445 -0.7408 -1.8786 -1.0663
  253POPC  H15S16835   2.999   1.341   4.575 -3.2013  0.8658 -0.1337
  253POPC  C21616836   2.935   1.521   4.487 -0.5471 -0.3924  0.3131
  253POPC  H16R16837   2.826   1.519   4.507 -0.5298  1.4301  0.7443
  253POPC  H16S16838   2.941   1.572   4.389  1.2312  0.0856  0.6363
  253POPC  C21716839   3.006   1.615   4.585 -0.4462  0.0534  0.1945
  253POPC  H17R16840   2.992   1.573   4.687 -1.7049 -2.5573 -0.9567
  253POPC  H17S16841   2.951   1.711   4.596  0.6766  0.5807  1.5866
  253POPC  C21816842   3.148   1.642   4.562  0.0675 -0.1547  0.8291
  253POPC  H18R16843   3.208   1.549   4.575 -0.5791 -0.9604 -1.3907
  253POPC  H18S16844   3.181   1.729   4.622  2.9786 -0.3064 -0.3575
  253POPC  H18T16845   3.162   1.676   4.457 -1.4075 -0.0741  0.6311
  253POPC   C3316846   2.373  -0.014   4.044 -0.2136 -0.6353 -0.0118
  253POPC   H3X16847   2.357   0.089   4.007  1.2243  0.5885  2.5065
  253POPC   H3Y16848   2.480  -0.026   4.073 -0.2111 -2.6309 -0.7112
  253POPC   C3416849   2.272   6.389   4.158  0.3919 -0.7864 -0.6758
  253POPC   H4X16850   2.292   6.448   4.251  2.3435 -1.0060 -0.9257
  253POPC   H4Y16851   2.295   6.283   4.180  0.4937 -0.7998 -0.8454
  253POPC   C3516852   2.121   6.423   4.124 -0.8492 -0.6146  0.1131
  253POPC   H5X16853   2.102   6.367   4.031 -1.4375  1.6376 -1.2099
  253POPC   H5Y16854   2.113   6.532   4.100 -1.5079 -0.5573  0.5804
  253POPC   C3616855   2.020   6.395   4.229  0.0299  0.2124 -0.0998
  253POPC   H6X16856   2.024   6.286   4.249  1.2355  0.3580  0.5365
  253POPC   H6Y16857   1.914   6.416   4.204 -0.7920 -0.6352  2.3952
  253POPC   C3716858   2.042   0.019   4.361  0.3233  0.1043  0.1049
  253POPC   H7X16859   2.031   0.129   4.360  0.5148  0.1287  0.7571
  253POPC   H7Y16860   2.147  -0.003   4.390  0.9150  3.1530  0.5887
  253POPC   C3816861   1.949   6.411   4.469  0.2346  1.2220 -0.1680
  253POPC   H8X16862   1.984   6.306   4.486  0.2803  1.4645  1.3836
  253POPC   H8Y16863   1.843   6.401   4.438 -0.5208  1.2649  2.1821
  253POPC   C3916864   1.943   0.040   4.604  0.0702 -0.0156  0.8151
  253POPC   H9X16865   1.887  -0.023   4.677  0.2684 -1.5178 -0.2965
  253POPC   H9Y16866   1.886   0.135   4.590 -0.4463  0.0930  3.2177
  253POPC  C31016867   2.084   0.076   4.666 -0.3829  0.0096  0.0426
  253POPC  H10X16868   2.146   0.138   4.597 -2.7077  1.5320 -0.8089
  253POPC  H10Y16869   2.131  -0.022   4.690 -0.1497 -0.0697 -0.6879
  253POPC  C31116870   2.082   0.152   4.795  0.1679  0.1051  0.4912
  253POPC  H11X16871   2.008   0.109   4.865  0.5777  0.0570  0.8996
  253POPC  H11Y16872   2.057   0.259   4.777  0.5215  0.2011  0.5627
  253POPC  C31216873   2.217   0.138   4.864  0.1277 -0.5100  0.1575
  253POPC  H12X16874   2.285   0.214   4.819 -0.1360  0.3287  1.1275
  253POPC  H12Y16875   2.259   0.036   4.858 -0.6898 -1.0699  2.5950
  253POPC  C31316876   2.206   0.172   5.015  0.1255 -0.0020  0.8578
  253POPC  H13X16877   2.152   0.091   5.067  0.0202  1.0745  2.4953
  253POPC  H13Y16878   2.152   0.268   5.029  0.1526 -0.1350  1.9669
  253POPC  C31416879   2.346   0.175   5.082  0.1549 -0.1209 -0.0655
  253POPC  H14X16880   2.398   0.265   5.043  0.4290 -0.4845 -0.5556
  253POPC  H14Y16881   2.404   0.088   5.045 -0.4158  0.1362 -1.6421
  253POPC  C31516882   2.349   0.179   5.236 -0.2559 -0.5268 -0.4393
  253POPC  H15X16883   2.281   0.105   5.284 -1.7551 -0.2766 -2.0573
  253POPC  H15Y16884   2.333   0.281   5.277  2.1792 -1.0323  2.0545
  253POPC  C31616885   2.491   0.145   5.280 -0.2671 -0.3212 -0.3550
  253POPC  H16X16886   2.526   0.048   5.238  2.9277  1.0238 -1.1128
  253POPC  H16Y16887   2.497   0.144   5.391 -0.8376  0.3429 -0.3112
  253POPC  H16Z16888   2.566   0.219   5.244 -1.8106  1.4570 -0.0720
  254POPC     N16889   4.453   5.999   2.716  0.0636  0.5260 -0.1117
  254POPC   C1216890   4.550   5.990   2.837 -0.4908 -0.1643 -0.0866
  254POPC  H12A16891   4.635   6.053   2.816 -0.9010  0.1571 -0.8491
  254POPC  H12B16892   4.588   5.889   2.835  3.2274  1.1020 -0.0473
  254POPC   C1316893   4.519   5.959   2.590  0.3381 -0.4674 -0.0339
  254POPC  H13A16894   4.578   6.043   2.555 -0.2229  0.3055  0.8006
  254POPC  H13B16895   4.573   5.866   2.595 -1.0702 -1.2728  0.8824
  254POPC  H13C16896   4.447   5.941   2.512  1.1135  2.0019 -1.4222
  254POPC   C1416897   4.337   5.912   2.735 -0.1576 -0.1325 -0.4504
  254POPC  H14A16898   4.359   5.811   2.704 -0.2837 -0.2053 -0.3005
  254POPC  H14B16899   4.302   5.908   2.837  0.8222 -0.4429 -0.1166
  254POPC  H14C16900   4.252   5.941   2.676 -0.4833 -0.1507  0.0070
  254POPC   C1516901   4.392   6.134   2.695 -0.2902 -0.1028 -0.1942
  254POPC  H15A16902   4.467   6.203   2.659 -1.1899  1.7267  1.2407
  254POPC  H15B16903   4.359   6.179   2.788  1.3374  1.9174 -0.5238
  254POPC  H15C16904   4.310   6.134   2.625 -0.4816  0.1207  0.0252
  254POPC   C1116905   4.493   6.031   2.975 -0.2791  0.2826  0.1327
  254POPC  H11A16906   4.576   5.991   3.037 -0.1118 -0.7847 -0.7399
  254POPC  H11B16907   4.407   5.967   3.004  0.2363 -0.6719 -0.3530
  254POPC     P16908   4.587   6.272   3.028  0.3402 -0.1292  0.6663
  254POPC   O1316909   4.538   6.408   3.055  0.0982 -1.0436  0.0167
  254POPC   O1416910   4.701   6.253   2.929  0.3042 -0.3691 -0.0954
  254POPC   O1216911   4.475   6.177   2.993  0.5443 -0.1014 -0.5504
  254POPC   O1116912   4.624   6.209   3.163  0.1251 -0.1852  0.3534
  254POPC    C116913   4.567   6.248   3.288 -0.1157  0.0749  0.2978
  254POPC    HA16914   4.477   6.311   3.273 -0.2579 -0.6465 -2.2407
  254POPC    HB16915   4.634   6.304   3.357  0.2526  2.0162 -1.5281
  254POPC    C216916   4.519   6.117   3.363 -0.8707 -0.5097  0.4813
  254POPC    HS16917   4.459   6.060   3.290  0.5384 -0.9031 -0.4060
  254POPC   O2116918   4.451   6.145   3.486 -0.0262 -0.7220 -0.5429
  254POPC   C2116919   4.326   6.187   3.473  0.0149 -0.4366  0.0539
  254POPC   O2216920   4.266   6.193   3.371 -0.1799  0.2457 -0.3075
  254POPC   C2216921   4.269   6.209   3.620  0.2470 -0.8757 -0.6346
  254POPC   H2R16922   4.361   6.223   3.681  0.0984 -2.5503  0.0499
  254POPC   H2S16923   4.228   6.112   3.656  1.1628 -0.3730  1.9438
  254POPC    C316924   4.650   6.032   3.397  0.2868  0.3604 -1.1127
  254POPC    HX16925   4.703   6.107   3.460 -2.0883  0.6206  0.7534
  254POPC    HY16926   4.716   6.001   3.314  0.7346 -3.9936  0.6329
  254POPC   O3116927   4.619   5.918   3.476  0.4839 -0.3830 -0.2638
  254POPC   C3116928   4.620   5.798   3.424  0.1932 -0.0386  0.0652
  254POPC   O3216929   4.625   5.783   3.305  0.6675  0.5554 -0.4804
  254POPC   C3216930   4.606   5.699   3.538 -0.1771 -1.1149 -0.0542
  254POPC   H2X16931   4.654   5.732   3.632 -1.6389 -0.6427  0.5600
  254POPC   H2Y16932   4.660   5.608   3.505  0.9952 -0.3901 -0.1925
  254POPC   C2316933   4.165   6.318   3.636 -1.0603 -0.7875  0.1975
  254POPC   H3R16934   4.108   6.332   3.730 -1.4865  0.6030 -0.2419
  254POPC   H3S16935   4.084   6.301   3.561 -0.1164  2.5875 -1.7796
  254POPC   C2416936   4.227   0.011   3.600 -0.6359 -0.8365 -0.2627
  254POPC   H4R16937   4.142   0.078   3.575  0.0130 -0.8082 -2.6549
  254POPC   H4S16938   4.293   0.001   3.511  4.1463  0.2733  2.8007
  254POPC   C2516939   4.323   0.065   3.706  0.5259  0.0063 -0.0498
  254POPC   H5R16940   4.351   0.169   3.679 -2.7459  0.6211 -1.5731
  254POPC   H5S16941   4.416   0.006   3.718  1.0930  1.1143  1.2115
  254POPC   C2616942   4.244   0.086   3.838  0.3163 -0.3930  0.5598
  254POPC   H6R16943   4.208  -0.005   3.890 -0.3841  0.2166  1.1863
  254POPC   H6S16944   4.146   0.139   3.827 -0.4055 -1.6629  0.7068
  254POPC   C2716945   4.322   0.167   3.942 -0.4160 -0.3923  0.2262
  254POPC   H7R16946   4.288   0.272   3.956  1.2990  0.1488  0.5085
  254POPC   H7S16947   4.429   0.168   3.914 -0.8357 -1.8844 -1.6479
  254POPC   C2816948   4.320   0.106   4.082 -0.1676 -0.4306 -1.2062
  254POPC   H8R16949   4.344  -0.003   4.077 -1.1101 -0.6873 -0.3715
  254POPC   H8S16950   4.210   0.113   4.100  0.2418  0.7459  1.1336
  254POPC   C2916951   4.405   0.187   4.176 -1.0344  0.0965  0.1567
  254POPC   H9116952   4.490   0.240   4.130 -1.5427  2.5418  1.8515
  254POPC  C21016953   4.380   0.209   4.307  0.3648  0.0091 -0.4652
  254POPC  H10116954   4.449   0.266   4.370 -0.9274 -2.4114  3.5473
  254POPC  C21116955   4.271   0.155   4.393  0.3249  0.4940 -0.1964
  254POPC  H11R16956   4.190   0.113   4.329  0.3182 -0.9186  0.6914
  254POPC  H11S16957   4.238   0.242   4.453  2.4835  1.2495  0.0026
  254POPC  C21216958   4.333   0.043   4.481 -0.6633 -0.6235  0.7194
  254POPC  H12R16959   4.435   0.059   4.524 -1.3596 -1.6554  2.9160
  254POPC  H12S16960   4.341  -0.045   4.415 -2.5867 -0.0813 -0.2952
  254POPC  C21316961   4.238   0.014   4.598 -0.2482  0.0861 -0.1869
  254POPC  H13R16962   4.139  -0.014   4.558  0.1732 -3.2278  0.7986
  254POPC  H13S16963   4.229   0.112   4.650 -0.6641  0.5235 -1.0626
  254POPC  C21416964   4.285   6.342   4.688  0.3322 -0.1920  0.2817
  254POPC  H14R16965   4.386   6.359   4.729  0.4858 -0.6389  0.1045
  254POPC  H14S16966   4.290   6.249   4.626  2.1422 -0.2395  0.4586
  254POPC  C21516967   4.193   6.326   4.819 -0.8565  0.0740  0.3173
  254POPC  H15R16968   4.231   6.234   4.867  1.9913  1.4757  0.9841
  254POPC  H15S16969   4.084   6.318   4.799 -0.6882 -1.2184 -0.1817
  254POPC  C21616970   4.221  -0.001   4.925  0.0532 -0.4400  0.2525
  254POPC  H16R16971   4.189   0.094   4.876 -1.1867 -1.3931 -0.8686
  254POPC  H16S16972   4.332  -0.005   4.934  0.1041  1.4059  1.0050
  254POPC  C21716973   4.159   6.435   5.060  0.2899  0.4152 -0.2574
  254POPC  H17R16974   4.152   6.326   5.084  1.2580  0.2500 -0.6426
  254POPC  H17S16975   4.057   6.477   5.063 -1.0797 -2.5411 -1.6407
  254POPC  C21816976   4.247   0.048   5.176 -0.2088 -0.8022 -0.0420
  254POPC  H18R16977   4.337  -0.016   5.188  0.6032  0.6697  2.5970
  254POPC  H18S16978   4.195   0.064   5.274  2.0227 -2.1841  1.4536
  254POPC  H18T16979   4.269   0.148   5.133 -1.2021 -1.2578 -1.7036
  254POPC   C3316980   4.459   5.672   3.560  0.4705  0.0298  0.3791
  254POPC   H3X16981   4.456   5.577   3.617 -0.9908 -0.2836 -0.1750
  254POPC   H3Y16982   4.407   5.641   3.468 -1.0647 -0.3789  1.3424
  254POPC   C3416983   4.388   5.788   3.628  0.0252  0.6207 -0.2553
  254POPC   H4X16984   4.278   5.767   3.631  0.2897 -0.9606 -0.4865
  254POPC   H4Y16985   4.385   5.883   3.571 -1.4497  1.4114  1.0542
  254POPC   C3516986   4.440   5.814   3.767 -0.3976 -0.4173 -0.2274
  254POPC   H5X16987   4.548   5.839   3.760  0.1427 -2.8327 -1.2304
  254POPC   H5Y16988   4.430   5.727   3.835  1.6131 -0.3998  0.1503
  254POPC   C3616989   4.372   5.937   3.826  0.3601  0.1120 -0.0566
  254POPC   H6X16990   4.266   5.919   3.798  0.5755  1.8840 -2.1841
  254POPC   H6Y16991   4.402   6.027   3.770 -0.1228 -0.0113 -0.5170
  254POPC   C3716992   4.384   5.966   3.975 -0.9072 -0.0405 -0.1717
  254POPC   H7X16993   4.494   5.975   3.991 -0.6939  1.1881 -2.0529
  254POPC   H7Y16994   4.338   5.877   4.025 -1.6949  0.2601 -0.3554
  254POPC   C3816995   4.316   6.099   4.014 -0.0406  0.2841 -0.3619
  254POPC   H8X16996   4.206   6.091   3.999 -0.7042 -3.7099  4.3315
  254POPC   H8Y16997   4.359   6.186   3.959 -1.1324  1.3140  0.3906
  254POPC   C3916998   4.326   6.121   4.172 -0.0150  0.2171  0.0555
  254POPC   H9X16999   4.281   6.216   4.206  0.4482 -0.3452  2.3766
  254POPC   H9Y17000   4.436   6.128   4.191  0.1740  1.5082 -1.2922
  254POPC  C31017001   4.270   6.013   4.267  0.5164 -0.2970 -0.6258
  254POPC  H10X17002   4.348   5.937   4.250  1.6843  0.8212 -0.4378
  254POPC  H10Y17003   4.170   5.980   4.233 -1.0718  2.4662  0.9098
  254POPC  C31117004   4.271   6.044   4.418  0.3449 -0.5924  0.2714
  254POPC  H11X17005   4.186   6.110   4.445  0.5873  0.5198 -1.5658
  254POPC  H11Y17006   4.361   6.101   4.448  0.5459 -1.5621  1.6305
  254POPC  C31217007   4.261   5.916   4.508 -0.9919  0.3513  0.5496
  254POPC  H12X17008   4.220   5.834   4.445 -0.4711  1.2775 -1.0727
  254POPC  H12Y17009   4.184   5.930   4.587 -1.0223 -2.7519  1.1858
  254POPC  C31317010   4.391   5.883   4.593  0.6216  0.0388  0.8316
  254POPC  H13X17011   4.424   5.979   4.637  1.4062  0.2025 -0.0975
  254POPC  H13Y17012   4.475   5.852   4.528  1.4529 -0.8191  2.2672
  254POPC  C31417013   4.372   5.778   4.697  0.8222 -1.1223  0.1958
  254POPC  H14X17014   4.332   5.680   4.663  0.6499 -0.6127 -1.1451
  254POPC  H14Y17015   4.301   5.808   4.777  2.0194  0.2444  0.7885
  254POPC  C31517016   4.500   5.751   4.782  0.0284 -0.1578  0.1812
  254POPC  H15X17017   4.457   5.718   4.878 -1.2896 -1.2956 -0.7532
  254POPC  H15Y17018   4.563   5.841   4.796 -0.5914  0.2039  0.7279
  254POPC  C31617019   4.584   5.640   4.712 -0.2023 -1.1771 -0.4356
  254POPC  H16X17020   4.631   5.672   4.616  0.6455  3.0087  1.1537
  254POPC  H16Y17021   4.508   5.560   4.696  0.2610 -2.1449  1.8707
  254POPC  H16Z17022   4.669   5.606   4.775  1.4599  0.3721 -1.7240
  255POPC     N17023   4.991   4.787   3.257  0.0485 -0.1480  0.2620
  255POPC   C1217024   4.957   4.642   3.257 -0.2733 -0.4427 -0.4476
  255POPC  H12A17025   4.890   4.621   3.339  0.2112  0.2393  0.1347
  255POPC  H12B17026   5.043   4.581   3.279  0.1337  0.8254  1.7222
  255POPC   C1317027   4.869   4.869   3.262 -0.1451 -0.2404  0.1626
  255POPC  H13A17028   4.804   4.838   3.342  0.4558 -0.0050  0.7548
  255POPC  H13B17029   4.883   4.976   3.268 -0.3766 -0.2160  0.2573
  255POPC  H13C17030   4.799   4.863   3.180 -0.0534  1.7140 -0.0990
  255POPC   C1417031   5.079   4.826   3.370 -0.0377  0.2602  0.1162
  255POPC  H14A17032   5.030   4.799   3.463 -2.1040  0.3488 -0.8972
  255POPC  H14B17033   5.168   4.765   3.374  0.4369  0.9957  1.6747
  255POPC  H14C17034   5.098   4.932   3.364 -3.5290  1.0229  0.4761
  255POPC   C1517035   5.064   4.816   3.126  0.3965 -0.3663  0.4187
  255POPC  H15A17036   5.159   4.765   3.118 -0.4872 -1.9686 -0.3066
  255POPC  H15B17037   5.065   4.924   3.117 -0.6275 -0.3079  0.9273
  255POPC  H15C17038   5.002   4.793   3.041  0.0614  2.5195 -0.2308
  255POPC   C1117039   4.899   4.584   3.127  0.3056 -1.2015  0.5527
  255POPC  H11A17040   4.865   4.481   3.154 -1.3458 -0.2915  2.1770
  255POPC  H11B17041   4.979   4.577   3.051 -1.0083 -1.2722 -0.8850
  255POPC     P17042   4.637   4.607   3.081 -0.1987  0.5434  0.0075
  255POPC   O1317043   4.631   4.474   3.010 -0.3749 -0.6311  0.1563
  255POPC   O1417044   4.550   4.710   3.021 -0.3290  0.1103 -0.3401
  255POPC   O1217045   4.786   4.655   3.072 -0.1577  0.7585 -0.2674
  255POPC   O1117046   4.613   4.582   3.239 -0.1656 -0.6631 -0.1045
  255POPC    C117047   4.640   4.461   3.300 -0.1844  0.2910 -0.1040
  255POPC    HA17048   4.746   4.426   3.300 -0.4194 -0.4765  0.8846
  255POPC    HB17049   4.594   4.376   3.245 -2.7906  0.6276  1.3883
  255POPC    C217050   4.600   4.460   3.452 -0.0550 -0.0494  0.1930
  255POPC    HS17051   4.670   4.525   3.510 -0.8401 -0.0203  1.1407
  255POPC   O2117052   4.608   4.323   3.494 -0.4687 -0.1908  0.0070
  255POPC   C2117053   4.626   4.308   3.625  0.0917 -0.1032  0.3382
  255POPC   O2217054   4.678   4.396   3.693  0.1594  0.2990 -0.3868
  255POPC   C2217055   4.598   4.171   3.686 -0.0705  0.6119 -0.4776
  255POPC   H2R17056   4.666   4.097   3.640  0.5449  1.9226 -1.7669
  255POPC   H2S17057   4.490   4.150   3.670 -0.8129  3.1744  0.5544
  255POPC    C317058   4.451   4.501   3.475  0.2374 -0.4916  0.0072
  255POPC    HX17059   4.389   4.420   3.430 -0.3266 -0.4941  0.7661
  255POPC    HY17060   4.419   4.596   3.427  0.1628  0.3103  1.5562
  255POPC   O3117061   4.423   4.511   3.617 -0.6573 -0.4163 -0.5993
  255POPC   C3117062   4.486   4.608   3.680  0.2767  0.4018  0.2055
  255POPC   O3217063   4.541   4.705   3.632 -0.2198  0.0057  0.1888
  255POPC   C3217064   4.484   4.586   3.826  0.0403  1.0467  0.0927
  255POPC   H2X17065   4.481   4.476   3.841 -0.5396  0.8845 -1.0545
  255POPC   H2Y17066   4.401   4.646   3.869 -1.9699 -1.7182  0.3695
  255POPC   C2317067   4.628   4.157   3.845  0.2408  0.3611  0.4018
  255POPC   H3R17068   4.613   4.256   3.892  0.2965  1.0162 -0.9213
  255POPC   H3S17069   4.732   4.120   3.859  0.9297  0.3038 -3.6852
  255POPC   C2417070   4.532   4.055   3.906  0.2367  0.3664  0.2873
  255POPC   H4R17071   4.558   3.948   3.893  2.7389  0.7740  1.3483
  255POPC   H4S17072   4.431   4.068   3.860 -0.0546 -1.5998  0.2789
  255POPC   C2517073   4.526   4.081   4.053 -1.0283 -0.4516 -0.5400
  255POPC   H5R17074   4.622   4.102   4.103 -2.2785 -2.2182  2.9081
  255POPC   H5S17075   4.476   3.994   4.100  0.3681 -0.1775  1.5746
  255POPC   C2617076   4.446   4.208   4.101  0.2757  0.5903  0.2122
  255POPC   H6R17077   4.339   4.193   4.076 -0.1871  0.7738  1.9331
  255POPC   H6S17078   4.470   4.298   4.041  0.6622 -0.0889 -0.6790
  255POPC   C2717079   4.474   4.250   4.242 -0.5075 -0.7311  0.1908
  255POPC   H7R17080   4.582   4.275   4.255 -0.1798  0.4215 -3.5694
  255POPC   H7S17081   4.452   4.161   4.305 -3.7208  0.0489  0.2953
  255POPC   C2817082   4.381   4.369   4.296 -0.2100 -0.3110  0.5430
  255POPC   H8R17083   4.280   4.357   4.250 -0.1809  2.4741 -0.3911
  255POPC   H8S17084   4.423   4.458   4.246  0.5902 -1.2523 -0.5204
  255POPC   C2917085   4.374   4.393   4.446  0.0594 -0.4067  0.6493
  255POPC   H9117086   4.456   4.460   4.479  0.1956  0.4317 -1.2586
  255POPC  C21017087   4.275   4.346   4.519 -0.5964  0.7856  0.2309
  255POPC  H10117088   4.277   4.383   4.623 -2.3418 -0.9206  0.9420
  255POPC  C21117089   4.153   4.257   4.483  0.0217 -1.0091  0.4613
  255POPC  H11R17090   4.126   4.249   4.376 -2.2037  3.1900  0.4980
  255POPC  H11S17091   4.062   4.306   4.526  0.2393 -0.4446  0.2864
  255POPC  C21217092   4.161   4.116   4.546  0.1001  0.0051  0.6024
  255POPC  H12R17093   4.263   4.074   4.534  0.1888  0.5884 -0.9158
  255POPC  H12S17094   4.090   4.054   4.486  0.2616 -1.0934  1.5287
  255POPC  C21317095   4.134   4.116   4.693  0.3450  0.4836  0.1416
  255POPC  H13R17096   4.196   4.195   4.740  1.5939 -1.6267  2.2871
  255POPC  H13S17097   4.150   4.015   4.736  0.7585  0.2500 -0.5361
  255POPC  C21417098   3.984   4.147   4.727 -0.5321  0.0152  0.5854
  255POPC  H14R17099   3.929   4.072   4.667 -2.0866  1.3219  0.3066
  255POPC  H14S17100   3.954   4.249   4.695  0.8560 -0.1919 -1.5682
  255POPC  C21517101   3.948   4.129   4.877 -0.0277  0.0918 -0.2609
  255POPC  H15R17102   4.008   4.211   4.924 -2.9880  2.0039  0.4889
  255POPC  H15S17103   3.975   4.024   4.898 -3.5534 -0.7760  0.5300
  255POPC  C21617104   3.798   4.149   4.900  0.1938  0.4374 -0.1102
  255POPC  H16R17105   3.735   4.107   4.819  0.2791  1.6992 -0.8582
  255POPC  H16S17106   3.768   4.256   4.904 -3.1897 -0.3809 -0.6734
  255POPC  C21717107   3.749   4.076   5.029 -0.5681 -0.7731 -0.9299
  255POPC  H17R17108   3.813   4.090   5.119 -1.8205  1.5854 -0.3339
  255POPC  H17S17109   3.745   3.970   4.997  0.1117 -1.3951  0.8813
  255POPC  C21817110   3.608   4.126   5.070  0.2162 -0.4526 -0.2924
  255POPC  H18R17111   3.548   4.114   4.978 -1.9786  0.6313  0.9267
  255POPC  H18S17112   3.614   4.235   5.091 -0.9160 -0.2247 -1.0767
  255POPC  H18T17113   3.555   4.072   5.151 -1.1453 -1.4411 -1.7930
  255POPC   C3317114   4.607   4.632   3.902  0.5078 -0.4326  0.6247
  255POPC   H3X17115   4.609   4.737   3.866 -3.2078 -0.3110  0.4191
  255POPC   H3Y17116   4.696   4.573   3.873  1.9174  2.1155 -0.5940
  255POPC   C3417117   4.602   4.628   4.054 -0.1990  0.0332 -0.2879
  255POPC   H4X17118   4.618   4.520   4.077 -1.3608  0.1066  0.9627
  255POPC   H4Y17119   4.507   4.656   4.103 -0.6916  0.8333 -1.6499
  255POPC   C3517120   4.716   4.708   4.124  0.8274 -0.1398 -0.2590
  255POPC   H5X17121   4.691   4.816   4.119  0.7146 -0.1288  0.4736
  255POPC   H5Y17122   4.804   4.693   4.058  1.3877  1.3760  0.0983
  255POPC   C3617123   4.744   4.661   4.266 -0.3546  1.3940 -0.0323
  255POPC   H6X17124   4.834   4.720   4.294  0.4999  0.5289 -0.8836
  255POPC   H6Y17125   4.771   4.553   4.272 -1.0662  0.8827 -3.5200
  255POPC   C3717126   4.638   4.712   4.366 -0.7804  0.6750  0.8164
  255POPC   H7X17127   4.545   4.659   4.334 -0.9142  0.5954  1.3156
  255POPC   H7Y17128   4.627   4.820   4.342 -0.6497  0.0834 -2.3500
  255POPC   C3817129   4.666   4.698   4.516 -0.7907 -0.3068 -1.2880
  255POPC   H8X17130   4.765   4.741   4.543 -1.3895  0.6201 -0.4847
  255POPC   H8Y17131   4.658   4.594   4.553 -0.4627  0.7765  2.2871
  255POPC   C3917132   4.551   4.767   4.596 -0.2113 -0.2450 -0.6522
  255POPC   H9X17133   4.451   4.744   4.553 -0.0790  1.3940 -1.9740
  255POPC   H9Y17134   4.565   4.877   4.585  0.4556 -0.3068 -0.4391
  255POPC  C31017135   4.551   4.735   4.747  0.5650  0.0915  1.3706
  255POPC  H10X17136   4.655   4.762   4.774  1.6494 -1.5840 -0.8152
  255POPC  H10Y17137   4.546   4.624   4.750  2.8327 -0.1776 -0.8122
  255POPC  C31117138   4.447   4.809   4.833  0.3552 -0.3860 -0.5457
  255POPC  H11X17139   4.344   4.801   4.794 -0.5509 -0.2165  1.6778
  255POPC  H11Y17140   4.488   4.913   4.834  1.9890 -0.9952 -0.0148
  255POPC  C31217141   4.438   4.759   4.980 -0.0221  0.1216  0.0666
  255POPC  H12X17142   4.415   4.650   4.990 -1.5068  0.6498  3.6327
  255POPC  H12Y17143   4.360   4.818   5.031 -1.6344 -0.0372 -2.0849
  255POPC  C31317144   4.568   4.768   5.056  0.9076  0.4778  0.0418
  255POPC  H13X17145   4.608   4.870   5.039 -1.0968  1.3199  0.1815
  255POPC  H13Y17146   4.649   4.699   5.024  0.5805 -0.1005  0.4454
  255POPC  C31417147   4.552   4.741   5.210 -0.2792 -0.6849 -0.5263
  255POPC  H14X17148   4.519   4.638   5.233  0.5778 -0.8184  0.1719
  255POPC  H14Y17149   4.469   4.800   5.254  0.1576  0.0918 -0.7167
  255POPC  C31517150   4.680   4.778   5.286  0.6481  0.0510 -1.0766
  255POPC  H15X17151   4.668   4.888   5.302 -1.5195 -0.3575  0.6209
  255POPC  H15Y17152   4.770   4.761   5.223  0.8271  0.0467 -0.8225
  255POPC  C31617153   4.683   4.698   5.419  0.1676 -0.5936 -0.2650
  255POPC  H16X17154   4.591   4.708   5.481  0.4664 -0.9539  0.2335
  255POPC  H16Y17155   4.758   4.739   5.489  2.1878 -3.4727 -0.5964
  255POPC  H16Z17156   4.713   4.592   5.409 -1.1906 -1.0040 -0.2770
  256POPC     N17157   0.381   4.695   2.665  0.0335 -0.2235 -0.2672
  256POPC   C1217158   0.499   4.604   2.671  0.2635  0.3375  0.2477
  256POPC  H12A17159   0.565   4.642   2.594 -0.2607  1.5456  0.3810
  256POPC  H12B17160   0.465   4.507   2.637  2.8692 -0.9537  1.0553
  256POPC   C1317161   0.417   4.832   2.701 -0.3215 -0.1134  0.6246
  256POPC  H13A17162   0.324   4.883   2.720  0.1610  1.3364 -0.6859
  256POPC  H13B17163   0.488   4.830   2.782  1.0191 -1.8903 -0.4974
  256POPC  H13C17164   0.466   4.883   2.619  0.3082  0.3385  1.2655
  256POPC   C1417165   0.317   4.702   2.533  0.5878 -0.9825  0.1164
  256POPC  H14A17166   0.395   4.727   2.462  1.6619 -0.7080  1.3551
  256POPC  H14B17167   0.271   4.610   2.500 -1.6142 -0.2195  0.8926
  256POPC  H14C17168   0.248   4.784   2.537  0.8338 -0.8172  3.0519
  256POPC   C1517169   0.272   4.648   2.758 -0.0674 -0.3058  0.3061
  256POPC  H15A17170   0.254   4.548   2.724 -0.8724  0.1679 -0.6946
  256POPC  H15B17171   0.184   4.710   2.748 -0.7491 -1.3204 -0.0821
  256POPC  H15C17172   0.303   4.647   2.862  1.2598  2.0599  0.0121
  256POPC   C1117173   0.572   4.591   2.807  0.0727  0.1634 -0.8504
  256POPC  H11A17174   0.663   4.528   2.796  0.3194 -0.6243  3.5700
  256POPC  H11B17175   0.499   4.534   2.869  0.4679 -0.7778 -1.2383
  256POPC     P17176   0.570   4.741   3.030  0.4980 -0.0565  0.3613
  256POPC   O1317177   0.427   4.747   3.049  0.0315  0.0621  0.2588
  256POPC   O1417178   0.648   4.861   3.074  0.4937  0.5064  0.4182
  256POPC   O1217179   0.602   4.717   2.875  0.0857  0.4984 -0.4852
  256POPC   O1117180   0.617   4.607   3.094  0.7034 -0.3057  0.2227
  256POPC    C117181   0.691   4.601   3.216  0.4446 -0.2292 -0.3648
  256POPC    HA17182   0.777   4.671   3.221  2.1636 -2.3284  2.0152
  256POPC    HB17183   0.738   4.501   3.212 -1.2475 -1.1392  1.0091
  256POPC    C217184   0.600   4.598   3.341 -0.0865 -0.0433 -0.5408
  256POPC    HS17185   0.531   4.685   3.331  0.3322  0.7359  2.2702
  256POPC   O2117186   0.688   4.607   3.453 -0.2724 -0.3661 -0.1478
  256POPC   C2117187   0.738   4.730   3.477 -0.0410 -0.0187 -0.1107
  256POPC   O2217188   0.719   4.833   3.409 -0.7882  0.1603 -0.3246
  256POPC   C2217189   0.856   4.721   3.580 -0.2636 -0.2541 -0.1659
  256POPC   H2R17190   0.856   4.615   3.615  1.3429 -0.4472 -0.6790
  256POPC   H2S17191   0.809   4.778   3.663 -1.3268 -0.5833 -0.5229
  256POPC    C317192   0.509   4.481   3.358 -0.2003  1.0980  0.4496
  256POPC    HX17193   0.576   4.394   3.338 -1.0793  1.0418 -2.8266
  256POPC    HY17194   0.435   4.478   3.275  0.0173 -0.5146  0.2796
  256POPC   O3117195   0.449   4.468   3.492  0.6322 -0.4188 -0.1819
  256POPC   C3117196   0.327   4.519   3.503 -0.0821 -0.0669  0.8582
  256POPC   O3217197   0.274   4.593   3.418 -0.3845  0.7630  0.1297
  256POPC   C3217198   0.263   4.485   3.637  0.0762  0.2685  0.3517
  256POPC   H2X17199   0.314   4.548   3.713  0.3105  1.2542 -0.5973
  256POPC   H2Y17200   0.289   4.378   3.650  2.1184  0.5061 -1.1444
  256POPC   C2317201   0.993   4.777   3.531  0.4849 -0.2471 -0.0901
  256POPC   H3R17202   0.970   4.875   3.484 -0.6352 -1.9359 -3.4063
  256POPC   H3S17203   1.052   4.715   3.460 -0.7489 -2.8382  0.9792
  256POPC   C2417204   1.073   4.800   3.659 -0.0454  0.4145 -0.4025
  256POPC   H4R17205   1.092   4.698   3.699  0.3239  0.8604  0.5887
  256POPC   H4S17206   1.020   4.863   3.734  1.3279  4.5457 -2.6227
  256POPC   C2517207   1.203   4.864   3.634 -0.1048 -0.6626  0.7468
  256POPC   H5R17208   1.176   4.966   3.599  1.1542 -1.3343 -2.4932
  256POPC   H5S17209   1.242   4.817   3.542  0.5503  0.6444  0.3252
  256POPC   C2617210   1.303   4.861   3.748  0.0601  0.3114  0.3780
  256POPC   H6R17211   1.330   4.753   3.754  1.1451  0.4124 -1.5574
  256POPC   H6S17212   1.252   4.881   3.844 -0.5700 -0.9296  0.3204
  256POPC   C2717213   1.421   4.944   3.735  0.0546 -0.2816 -0.5221
  256POPC   H7R17214   1.480   4.918   3.644  0.4048 -0.4236 -0.2611
  256POPC   H7S17215   1.491   4.921   3.819  1.0605  0.0939 -1.2294
  256POPC   C2817216   1.376   5.090   3.742 -0.2989  0.1150  0.2436
  256POPC   H8R17217   1.298   5.098   3.821 -0.5706 -1.7753  0.2010
  256POPC   H8S17218   1.322   5.107   3.646  0.1562 -1.0320 -0.2297
  256POPC   C2917219   1.489   5.192   3.745 -0.6066 -0.6796  0.1500
  256POPC   H9117220   1.569   5.172   3.673 -1.3815  0.8886 -1.2142
  256POPC  C21017221   1.511   5.290   3.838  0.5045  0.5218 -0.8165
  256POPC  H10117222   1.593   5.361   3.823 -0.2616  1.5971 -0.0700
  256POPC  C21117223   1.429   5.297   3.968 -1.1834  0.2396  0.7884
  256POPC  H11R17224   1.324   5.292   3.932 -0.7488  0.8207 -0.6188
  256POPC  H11S17225   1.443   5.401   4.006 -2.3094  0.7600 -0.1661
  256POPC  C21217226   1.484   5.196   4.075  0.4784  0.3033  0.2345
  256POPC  H12R17227   1.593   5.178   4.072  0.4868  0.0473  1.5252
  256POPC  H12S17228   1.451   5.094   4.043  1.2251  0.3779 -0.8043
  256POPC  C21317229   1.431   5.233   4.218 -0.4173  0.1671 -0.5993
  256POPC  H13R17230   1.448   5.341   4.235 -0.3201  0.5796 -2.9873
  256POPC  H13S17231   1.475   5.160   4.288 -2.0173  0.5058  0.8331
  256POPC  C21417232   1.275   5.215   4.211  0.0565 -0.0758  0.4291
  256POPC  H14R17233   1.257   5.120   4.157  2.8110 -0.9597  0.9040
  256POPC  H14S17234   1.233   5.294   4.145  1.6672  1.3267  1.0050
  256POPC  C21517235   1.205   5.200   4.351  0.4249  0.2860 -0.3272
  256POPC  H15R17236   1.272   5.150   4.425 -2.1817 -1.4940  1.0096
  256POPC  H15S17237   1.115   5.136   4.338  0.7011 -0.0648 -0.5247
  256POPC  C21617238   1.156   5.337   4.411  0.4130 -0.2911  0.3831
  256POPC  H16R17239   1.106   5.381   4.322 -0.8703 -4.1760 -0.9988
  256POPC  H16S17240   1.244   5.396   4.442 -1.8240  1.7969  3.4153
  256POPC  C21717241   1.061   5.306   4.528  0.1334 -0.0629 -0.0228
  256POPC  H17R17242   1.033   5.390   4.595 -1.7984 -1.4178  0.9573
  256POPC  H17S17243   1.114   5.245   4.604  0.6123  0.1927 -0.1435
  256POPC  C21817244   0.930   5.246   4.479 -0.7765  0.2976  0.8021
  256POPC  H18R17245   0.892   5.157   4.533 -0.0959 -0.4127  0.1313
  256POPC  H18S17246   0.941   5.213   4.374 -1.5882 -0.1729  0.8611
  256POPC  H18T17247   0.846   5.317   4.461 -1.0671 -0.8896 -3.8867
  256POPC   C3317248   0.111   4.498   3.641  0.6925  0.0783 -0.3134
  256POPC   H3X17249   0.062   4.428   3.570  0.0195  1.2064 -1.0009
  256POPC   H3Y17250   0.088   4.599   3.600 -0.8814 -0.3253 -0.5129
  256POPC   C3417251   0.055   4.496   3.788 -0.4321 -0.5587  0.6352
  256POPC   H4X17252  -0.056   4.507   3.792 -0.4727 -0.4262 -0.4847
  256POPC   H4Y17253   0.088   4.580   3.853 -1.6408 -1.8256  3.0284
  256POPC   C3517254   0.086   4.363   3.860  0.4003 -0.0769 -0.3436
  256POPC   H5X17255   0.195   4.341   3.858  0.2453 -0.8441 -0.6255
  256POPC   H5Y17256   0.033   4.280   3.810 -1.1362  1.2160 -0.9563
  256POPC   C3617257   0.054   4.375   4.004 -0.6981  0.1401 -0.1918
  256POPC   H6X17258  -0.039   4.329   4.043 -0.0259 -1.1346 -0.0508
  256POPC   H6Y17259   0.059   4.484   4.025  1.4379 -0.1941  1.3863
  256POPC   C3717260   0.167   4.322   4.100 -0.3139 -0.2786  0.1501
  256POPC   H7X17261   0.146   4.354   4.204  1.5217  0.4018  0.3412
  256POPC   H7Y17262   0.263   4.363   4.062 -0.8656 -1.5456 -2.8749
  256POPC   C3817263   0.169   4.176   4.092 -1.1039  0.3723  0.3550
  256POPC   H8X17264   0.199   4.131   3.995 -1.4155 -0.8884  0.8258
  256POPC   H8Y17265   0.070   4.133   4.117 -0.4026 -0.6733  1.4960
  256POPC   C3917266   0.273   4.113   4.195 -0.0514  0.2331 -0.2188
  256POPC   H9X17267   0.236   4.011   4.220  0.3275  0.0102 -0.5479
  256POPC   H9Y17268   0.288   4.174   4.286  0.1598 -1.3231  0.8339
  256POPC  C31017269   0.424   4.088   4.144 -0.2049  0.0854  0.1480
  256POPC  H10X17270   0.474   4.186   4.127  3.5194 -1.5512  0.6179
  256POPC  H10Y17271   0.423   4.045   4.042  1.6017 -1.3865  0.7041
  256POPC  C31117272   0.516   3.998   4.226 -0.0542 -0.7330  0.7728
  256POPC  H11X17273   0.494   3.894   4.195 -0.3231 -0.8879  1.4607
  256POPC  H11Y17274   0.494   4.006   4.335  0.3859 -0.8950  0.8752
  256POPC  C31217275   0.665   4.032   4.214  0.4616  0.3594 -0.1204
  256POPC  H12X17276   0.679   4.135   4.253  0.0307  0.7233 -0.8860
  256POPC  H12Y17277   0.692   4.029   4.106  2.3023  0.5246  0.3095
  256POPC  C31317278   0.764   3.928   4.283  0.4259  0.1929 -0.2914
  256POPC  H13X17279   0.870   3.942   4.251 -0.6300  1.3388 -3.7462
  256POPC  H13Y17280   0.736   3.828   4.245 -0.5037  0.8852 -1.5239
  256POPC  C31417281   0.755   3.920   4.433  0.0588  0.2487  0.4900
  256POPC  H14X17282   0.659   3.867   4.447 -0.1047  0.2185 -0.6400
  256POPC  H14Y17283   0.754   4.023   4.475  0.1552 -1.1666  4.3159
  256POPC  C31517284   0.866   3.835   4.498  0.2118  0.4718  0.7290
  256POPC  H15X17285   0.847   3.729   4.467 -2.6241  0.6271  1.6588
  256POPC  H15Y17286   0.860   3.841   4.609  2.3004  2.5622  0.7863
  256POPC  C31617287   1.010   3.889   4.462  0.8219 -0.0478 -0.6026
  256POPC  H16X17288   1.073   3.838   4.386 -0.9091 -1.7054 -1.0058
  256POPC  H16Y17289   1.076   3.881   4.550  1.1433  0.5462 -0.7842
  256POPC  H16Z17290   1.008   3.995   4.427 -1.9517  0.1737 -0.0583
  257POPC     N17291   4.999   3.878   3.218  0.4008 -0.2714  0.0970
  257POPC   C1217292   4.963   3.952   3.343  0.1279 -0.5535 -0.0817
  257POPC  H12A17293   4.917   3.883   3.412 -0.8056 -1.8642 -1.9395
  257POPC  H12B17294   4.893   4.028   3.310  1.8496  1.8756  1.5088
  257POPC   C1317295   5.084   3.763   3.244  0.6589 -0.6912  0.7391
  257POPC  H13A17296   5.060   3.691   3.322  1.2350 -2.5077 -0.6938
  257POPC  H13B17297   5.086   3.714   3.148  1.4853 -0.7940  0.7965
  257POPC  H13C17298   5.184   3.800   3.263  0.5363  1.0674 -1.6853
  257POPC   C1417299   4.871   3.824   3.162  0.5856  0.0079  0.5942
  257POPC  H14A17300   4.883   3.782   3.064 -0.3464  0.4384  0.2836
  257POPC  H14B17301   4.815   3.755   3.223  1.3982 -1.4650 -0.2958
  257POPC  H14C17302   4.809   3.912   3.145 -0.4893 -1.1301 -1.8370
  257POPC   C1517303   5.062   3.972   3.120 -0.4656 -0.2430  0.1710
  257POPC  H15A17304   5.153   4.018   3.157 -0.4841 -0.9221  1.1055
  257POPC  H15B17305   5.004   4.058   3.090  0.6944  0.9131  1.1293
  257POPC  H15C17306   5.095   3.910   3.038 -3.5009 -1.4605 -0.2292
  257POPC   C1117307   5.061   4.030   3.427 -0.2074 -0.7534 -1.0032
  257POPC  H11A17308   5.142   3.953   3.437  2.3335  1.8061 -0.5026
  257POPC  H11B17309   5.011   4.049   3.525  1.0459 -0.5444 -0.3790
  257POPC     P17310   5.031   4.265   3.333  0.0208  0.1382 -0.3950
  257POPC   O1317311   4.895   4.239   3.284 -0.2105  0.8098  0.0844
  257POPC   O1417312   5.110   4.375   3.275 -0.1293 -0.2373  0.0568
  257POPC   O1217313   5.113   4.139   3.350 -0.1538 -0.2991 -0.8742
  257POPC   O1117314   5.014   4.296   3.486 -0.6931 -0.2089 -0.1763
  257POPC    C117315   5.125   4.350   3.562 -0.2292  0.5932  0.6873
  257POPC    HA17316   5.221   4.344   3.505 -2.0725  1.4882 -2.8128
  257POPC    HB17317   5.143   4.287   3.651  1.0488 -0.5039 -0.2992
  257POPC    C217318   5.107   4.499   3.608  0.7251  0.0433  0.3046
  257POPC    HS17319   5.102   4.561   3.517 -0.0149  1.9102  1.5569
  257POPC   O2117320   5.217   4.531   3.693 -0.1452  0.3473  0.0220
  257POPC   C2117321   5.243   4.658   3.708  0.1898 -0.2241 -0.5464
  257POPC   O2217322   5.198   4.758   3.657 -0.0650 -0.0173  0.0291
  257POPC   C2217323   5.335   4.676   3.833  0.3613  0.5486  0.6932
  257POPC   H2R17324   5.397   4.767   3.818  0.5066  0.1961 -1.1920
  257POPC   H2S17325   5.403   4.589   3.847 -1.5684 -1.0331  0.6727
  257POPC    C317326   4.971   4.512   3.682 -0.2182 -0.2105 -0.4503
  257POPC    HX17327   4.983   4.427   3.752  4.1797 -0.6616 -1.3986
  257POPC    HY17328   4.894   4.480   3.609 -1.8206  0.6755  0.7901
  257POPC   O3117329   4.944   4.638   3.736  0.2603 -0.3054  0.3690
  257POPC   C3117330   4.884   4.728   3.651 -0.9767  0.3572 -0.0013
  257POPC   O3217331   4.852   4.703   3.537  0.2744  0.2850  0.0567
  257POPC   C3217332   4.856   4.852   3.734  0.1362 -0.3996 -0.6041
  257POPC   H2X17333   4.953   4.892   3.771 -2.0697  0.7984  4.9670
  257POPC   H2Y17334   4.798   4.821   3.824  1.2385 -3.2382 -0.7598
  257POPC   C2317335   5.253   4.680   3.964 -0.3533 -0.2227  0.0756
  257POPC   H3R17336   5.222   4.577   3.993  2.2565 -0.5869  1.8919
  257POPC   H3S17337   5.167   4.746   3.940 -0.3177 -0.4908 -0.8559
  257POPC   C2417338   5.338   4.755   4.072 -0.2439  0.1052  0.2981
  257POPC   H4R17339   5.349   4.861   4.041 -4.0020  1.2944  2.3986
  257POPC   H4S17340   5.435   4.704   4.091 -1.6593 -3.4533 -1.1835
  257POPC   C2517341   5.269   4.755   4.208 -1.2346 -0.1853  0.0243
  257POPC   H5R17342   5.255   4.654   4.252 -0.2820 -1.4703 -2.4229
  257POPC   H5S17343   5.166   4.785   4.179 -1.0401 -0.6305 -1.1925
  257POPC   C2617344   5.338   4.849   4.310  0.2305  0.6016  1.0186
  257POPC   H6R17345   5.360   4.948   4.265  0.1020 -0.3083 -1.1553
  257POPC   H6S17346   5.437   4.802   4.325  0.3314  0.6295  0.4321
  257POPC   C2717347   5.260   4.875   4.436  0.0784  0.0917  0.2277
  257POPC   H7R17348   5.157   4.893   4.397  0.3983 -0.8028 -1.1313
  257POPC   H7S17349   5.286   4.957   4.505  0.1054  0.1727  0.1220
  257POPC   C2817350   5.237   4.758   4.527 -0.1406  0.0853 -0.2642
  257POPC   H8R17351   5.180   4.684   4.467 -0.6993 -0.2245  0.6325
  257POPC   H8S17352   5.169   4.796   4.606 -0.9138 -1.0591 -0.3489
  257POPC   C2917353   5.364   4.697   4.579 -0.5250 -0.5315  0.2911
  257POPC   H9117354   5.440   4.768   4.614 -0.6871  0.3203 -1.0220
  257POPC  C21017355   5.414   4.572   4.558  0.1057 -0.2160  0.2675
  257POPC  H10117356   5.519   4.549   4.580  1.8210  4.8869 -1.2872
  257POPC  C21117357   5.351   4.452   4.488 -0.0553 -0.2343 -0.4300
  257POPC  H11R17358   5.245   4.471   4.462 -0.0065 -1.1260 -1.3402
  257POPC  H11S17359   5.360   4.363   4.554  0.9762 -0.5724 -1.0003
  257POPC  C21217360   5.411   4.422   4.355  0.3360  0.0803  0.2054
  257POPC  H12R17361   5.521   4.420   4.370  0.2534  1.5577  1.2983
  257POPC  H12S17362   5.388   4.510   4.290  0.2286 -1.0638 -1.3508
  257POPC  C21317363   5.358   4.292   4.289 -0.0785  0.7104  0.2366
  257POPC  H13R17364   5.250   4.288   4.318  0.3226  1.7354  1.9895
  257POPC  H13S17365   5.416   4.205   4.327  2.6390  1.7572 -1.2557
  257POPC  C21417366   5.364   4.286   4.132  0.8717  0.0837 -0.0993
  257POPC  H14R17367   5.306   4.370   4.090  0.0167 -0.1085  0.6734
  257POPC  H14S17368   5.316   4.190   4.103 -0.3479  0.8938 -0.8039
  257POPC  C21517369   5.500   4.290   4.080 -0.3207  0.8073 -0.2822
  257POPC  H15R17370   5.564   4.215   4.132 -2.0927  0.1045  1.0035
  257POPC  H15S17371   5.556   4.381   4.110  0.8391  0.0381 -0.0393
  257POPC  C21617372   5.501   4.286   3.928  0.8471  0.4459  0.6004
  257POPC  H16R17373   5.582   4.348   3.883 -0.6494  3.3646  1.6470
  257POPC  H16S17374   5.406   4.330   3.893  1.0393  0.7360  0.4441
  257POPC  C21717375   5.529   4.149   3.866 -0.1608  0.1584  0.5720
  257POPC  H17R17376   5.438   4.088   3.884 -1.1476  0.4850 -2.6205
  257POPC  H17S17377   5.619   4.100   3.908 -0.5342  0.2034  1.4273
  257POPC  C21817378   5.532   4.149   3.710  0.1480  0.3011  0.0948
  257POPC  H18R17379   5.582   4.239   3.669  0.8246 -0.4681 -0.8207
  257POPC  H18S17380   5.429   4.168   3.674  0.4299  1.2722 -0.2168
  257POPC  H18T17381   5.581   4.064   3.658 -0.4361  0.3017 -0.4707
  257POPC   C3317382   4.778   4.955   3.651 -0.0912 -0.1964 -0.5655
  257POPC   H3X17383   4.694   4.921   3.587 -0.0577 -2.8352  0.6519
  257POPC   H3Y17384   4.851   4.986   3.573 -1.7765  4.6473 -0.5295
  257POPC   C3417385   4.739   5.086   3.726  0.9764 -0.5054 -0.3833
  257POPC   H4X17386   4.695   5.165   3.661  2.8079  0.4386 -0.5276
  257POPC   H4Y17387   4.828   5.125   3.780  0.1424 -0.0507  0.7157
  257POPC   C3517388   4.644   5.066   3.846  0.4100 -0.0739  0.8782
  257POPC   H5X17389   4.679   4.989   3.918 -2.0817  0.0593  2.3482
  257POPC   H5Y17390   4.550   5.025   3.804  0.5295 -0.0294  0.5630
  257POPC   C3617391   4.605   5.194   3.922 -0.0935  0.2113  0.2612
  257POPC   H6X17392   4.556   5.269   3.856  0.9956  1.0420  0.3725
  257POPC   H6Y17393   4.702   5.239   3.953  0.5895 -0.5954 -0.6280
  257POPC   C3717394   4.523   5.160   4.044  0.7612  0.5150  0.4373
  257POPC   H7X17395   4.502   5.259   4.091 -1.0458 -0.0152  0.7934
  257POPC   H7Y17396   4.587   5.107   4.118  1.5168  2.9174  1.6269
  257POPC   C3817397   4.388   5.100   4.006  0.0316 -0.2802 -0.0270
  257POPC   H8X17398   4.399   5.023   3.927  0.4707  0.2353 -0.4740
  257POPC   H8Y17399   4.336   5.188   3.963  0.6892 -0.4846 -1.2733
  257POPC   C3917400   4.311   5.042   4.124  0.1857 -0.2608  0.0820
  257POPC   H9X17401   4.363   4.945   4.140  1.0340  0.0718 -0.5692
  257POPC   H9Y17402   4.206   5.026   4.092  0.1778 -0.1587  0.0575
  257POPC  C31017403   4.298   5.136   4.245  0.6652  0.1640  0.0070
  257POPC  H10X17404   4.198   5.124   4.291  0.2446  1.8287 -0.3944
  257POPC  H10Y17405   4.285   5.244   4.220 -0.0525 -0.4728 -2.5959
  257POPC  C31117406   4.394   5.106   4.368 -0.6298 -0.5986  0.3675
  257POPC  H11X17407   4.493   5.151   4.343 -0.9849  0.7884  1.3531
  257POPC  H11Y17408   4.403   4.995   4.370  3.8106 -0.4219  1.1486
  257POPC  C31217409   4.351   5.165   4.504  0.0621 -0.1734 -0.4080
  257POPC  H12X17410   4.275   5.103   4.556  0.4743 -0.6436 -0.3585
  257POPC  H12Y17411   4.302   5.264   4.494 -0.7910 -0.6983 -1.8065
  257POPC  C31317412   4.469   5.177   4.609 -0.1152  0.4438  0.5363
  257POPC  H13X17413   4.542   5.254   4.576  2.3202 -0.8622  2.5157
  257POPC  H13Y17414   4.516   5.077   4.616 -2.1246 -0.6964 -1.1293
  257POPC  C31417415   4.423   5.216   4.750  0.1091 -0.2269 -0.0996
  257POPC  H14X17416   4.370   5.130   4.797  1.9596 -0.0292  2.5566
  257POPC  H14Y17417   4.351   5.299   4.732 -1.8758 -1.5286  1.4266
  257POPC  C31517418   4.538   5.250   4.849  0.2204  0.4754 -0.2847
  257POPC  H15X17419   4.493   5.327   4.916 -1.6929 -0.6088 -0.2307
  257POPC  H15Y17420   4.628   5.299   4.806  1.3981 -0.3449  1.1606
  257POPC  C31617421   4.591   5.148   4.950  0.2512 -0.3704  0.4281
  257POPC  H16X17422   4.648   5.186   5.037 -1.3972  0.4032  1.1912
  257POPC  H16Y17423   4.663   5.091   4.887 -2.6130 -1.6810 -1.8795
  257POPC  H16Z17424   4.512   5.083   4.993 -1.0682  1.9879  1.7622
  258SOD    SOD17425   3.880   3.660   0.150 -0.2657  0.5704  0.5571
  259SOD    SOD17426   1.549   1.459   8.727 -0.6456 -0.3085 -0.2524
  260SOD    SOD17427   2.358   4.890   7.548  0.5894 -0.0521 -0.2769
  261SOD    SOD17428   0.995   2.934   6.456  0.3415  0.2462  0.0910
  262SOD    SOD17429   5.155   0.904   2.580 -0.2899 -0.1662 -0.1044
  263SOD    SOD17430   2.237   0.499   0.273  0.3168 -0.4261 -0.0553
  264SOD    SOD17431   0.047   0.265   9.271 -0.0386  0.3495  0.0080
  265SOD    SOD17432   3.723   4.382   0.638  0.0175  0.2796  0.5506
  266SOD    SOD17433   0.594   4.974   3.268  0.1780 -0.0162  0.4707
  267SOD    SOD17434   5.274   2.727   6.647 -0.1099 -0.3973  0.1887
  268SOD    SOD17435   4.732   2.340   2.471 -0.0915 -0.0507  0.4043
  269SOD    SOD17436   3.385   2.896   8.876 -0.4915 -0.2326  0.7360
  270SOD    SOD17437   0.272   1.932   6.359 -0.0014  0.0089 -0.1540
  271SOD    SOD17438   4.686   2.273   0.568  0.1514 -0.2188 -0.1176
  272SOD    SOD17439   5.653   2.898   2.680 -0.2619  0.1251 -0.0772
  273SOD    SOD17440   3.202   2.371   0.678  0.6855 -0.1671  0.2095
  274SOD    SOD17441   5.988   6.349   9.212  0.1171  0.8364 -0.6727
  275CLA    CLA17442   3.131   5.791   0.248 -0.2626 -0.4291 -0.2814
  276CLA    CLA17443   3.192   3.603   0.331 -0.2709 -0.2838  0.2814
  277CLA    CLA17444   5.399   3.171   9.347 -0.0005 -0.1033  0.3825
  278CLA    CLA17445   1.465   5.277   9.220  0.1552  0.2033 -0.1855
  279CLA    CLA17446   4.387   5.101   2.523 -0.1468 -0.1881 -0.1233
  280CLA    CLA17447   0.072   0.733   7.339 -0.2692 -0.4853 -0.0062
  281CLA    CLA17448   2.435   2.712   8.729  0.0904  0.3795 -0.0075
  282CLA    CLA17449   5.941   0.141   1.865  0.1060  0.3430 -0.0532
  283CLA    CLA17450   2.242   0.278   2.501 -0.1353  0.2645 -0.0250
  284CLA    CLA17451   2.507   2.497   7.756  0.0901 -0.1857  0.1819
  285CLA    CLA17452   1.745   2.647   1.964  0.2027 -0.2519 -0.2533
  286CLA    CLA17453   4.468   5.437   2.155  0.1830  0.4834  0.5114
  287CLA    CLA17454   5.957   2.053   7.664  0.0641 -0.3258 -0.2796
  288CLA    CLA17455   1.823   0.121   7.106  0.3889  0.5529  0.6171
  289CLA    CLA17456   2.919   0.851   7.515  0.0117 -0.0207  0.8561
  290CLA    CLA17457   6.210   1.634   0.007 -0.1758  0.0302 -0.6492
  291CLA    CLA17458   4.600   4.843   1.021  0.1293 -0.2422 -0.2828
  292CLA    CLA17459   2.714   1.615   6.981  0.0563  0.0829 -0.5266
  293CLA    CLA17460   2.643   4.223   1.564  0.2410  0.0508 -0.2241
  294CLA    CLA17461   3.176   4.336   8.454 -0.1785  0.4154 -0.5491
  295CLA    CLA17462   0.919   3.491   8.007  0.4453 -0.3285  0.3920
  296CLA    CLA17463   6.230   2.793   8.303  0.0275 -0.0548 -0.1396
  297CLA    CLA17464   4.197   1.997   1.590 -0.0588 -0.2168 -0.0094
  298TIP3   OH217465   5.832   5.275   2.193 -0.2282  0.7974  0.0684
  298TIP3    H117466   5.840   5.196   2.246  1.2093  0.5350 -0.4809
  298TIP3    H217467   5.741   5.304   2.205 -1.5570 -2.2378 -1.5225
  299TIP3   OH217468   3.972   3.452   8.178 -0.1108  0.3429 -0.1265
  299TIP3    H117469   4.062   3.461   8.209  0.1403 -0.1736 -0.6853
  299TIP3    H217470   3.979   3.396   8.101 -0.7793  1.2709 -0.8770
  300TIP3   OH217471   1.646   3.125   1.001  0.7989 -0.0859 -0.4650
  300TIP3    H117472   1.695   3.173   0.934  1.3484 -1.2543 -0.9285
  300TIP3    H217473   1.627   3.041   0.961  0.9065 -0.7127  0.7531
  301TIP3   OH217474   0.073   1.749   0.039 -0.2672  0.0454  0.4417
  301TIP3    H117475   0.122   1.671   0.066 -0.1898  0.6037  2.0468
  301TIP3    H217476  -0.014   1.716   0.017 -0.4098 -0.4459  1.6611
  302TIP3   OH217477   1.217   2.499   0.671  0.3780 -0.3151 -0.3410
  302TIP3    H117478   1.234   2.580   0.719  2.9032 -0.9578 -0.0036
  302TIP3    H217479   1.206   2.527   0.580 -1.6033  0.6333  0.1438
  303TIP3   OH217480   1.052   6.080   2.578  0.2452 -0.8535  0.0522
  303TIP3    H117481   1.111   6.055   2.507 -0.1189 -0.5519 -0.3601
  303TIP3    H217482   0.982   6.015   2.576  0.6938 -1.3635  0.7089
  304TIP3   OH217483   5.421   0.333   1.260  0.6815  0.6404  0.4004
  304TIP3    H117484   5.454   0.376   1.181  2.5163  0.7618  1.1931
  304TIP3    H217485   5.436   0.397   1.329 -2.8662  1.4301  0.6177
  305TIP3   OH217486   3.757   2.204   8.871 -0.4139 -1.1065 -0.8834
  305TIP3    H117487   3.672   2.184   8.831  0.2732  0.1770 -3.1846
  305TIP3    H217488   3.805   2.251   8.802  0.6680  1.8839  1.6861
  306TIP3   OH217489   1.408   2.122   6.200 -0.5899 -0.1055 -0.0980
  306TIP3    H117490   1.352   2.196   6.175 -0.0869 -0.3150 -2.0094
  306TIP3    H217491   1.447   2.148   6.283 -2.1176  0.8237  0.3631
  307TIP3   OH217492   3.226   4.066   1.939  0.1578  0.0745 -0.2905
  307TIP3    H117493   3.141   4.096   1.909  0.7360  1.2508 -0.7983
  307TIP3    H217494   3.232   3.976   1.906 -0.6688  0.1569 -0.6957
  308TIP3   OH217495   2.953   4.343   1.951 -0.2947 -0.1558 -0.4151
  308TIP3    H117496   2.923   4.403   1.883  1.3163 -0.2210 -1.2218
  308TIP3    H217497   2.950   4.256   1.910 -2.1023 -0.6112  0.5736
  309TIP3   OH217498   6.205   3.943   1.165  0.1695  0.2592  0.3553
  309TIP3    H117499   6.165   3.858   1.147 -0.8003 -0.2033  3.8986
  309TIP3    H217500   6.276   3.924   1.226  3.0750  1.6079 -2.3289
  310TIP3   OH217501   5.028   3.950   1.499 -0.8503  0.0757  0.1221
  310TIP3    H117502   4.952   3.978   1.551 -0.1351 -0.7268  1.6464
  310TIP3    H217503   5.050   4.027   1.446 -1.6151  0.9113  0.9823
  311TIP3   OH217504   2.877   3.324   7.315  0.6019 -0.3588  0.0601
  311TIP3    H117505   2.858   3.395   7.254  0.7895 -0.1500  0.2444
  311TIP3    H217506   2.908   3.252   7.260 -2.1283 -1.2650 -0.4627
  312TIP3   OH217507   1.213   2.679   1.873 -0.0269 -0.4722 -0.7878
  312TIP3    H117508   1.273   2.746   1.840  3.0463 -1.3936  2.3480
  312TIP3    H217509   1.130   2.724   1.885  1.1121  1.9700 -1.5169
  313TIP3   OH217510   3.363   3.712   1.388  0.0227  0.1273 -0.1213
  313TIP3    H117511   3.371   3.617   1.376  1.1030  0.3413 -1.3350
  313TIP3    H217512   3.380   3.748   1.301  2.1262  1.5396  0.7913
  314TIP3   OH217513   3.701   5.558   2.414 -0.0941  0.2360 -0.0163
  314TIP3    H117514   3.792   5.535   2.395 -0.0032  0.4577  0.1373
  314TIP3    H217515   3.686   5.525   2.503 -0.0788  0.4353  0.0611
  315TIP3   OH217516   3.791   4.152   1.954  0.7739  0.4400 -0.2153
  315TIP3    H117517   3.862   4.213   1.933 -0.6199  1.7666 -1.2599
  315TIP3    H217518   3.734   4.200   2.014  0.6827 -0.5739  0.5346
  316TIP3   OH217519   3.664   4.858   8.925 -0.7134  0.3743  0.1005
  316TIP3    H117520   3.625   4.850   8.838 -0.5452  0.1268  0.0487
  316TIP3    H217521   3.718   4.936   8.920  0.2377 -0.3042 -0.3755
  317TIP3   OH217522   0.033   3.049   8.377  0.4211  0.0704  0.0535
  317TIP3    H117523   0.038   3.130   8.326 -0.1881  0.4170  0.5272
  317TIP3    H217524  -0.043   3.061   8.434 -1.0098 -1.6985 -1.3598
  318TIP3   OH217525   1.774   2.769   7.152 -0.5436 -0.3990 -0.5373
  318TIP3    H117526   1.758   2.695   7.209 -0.4200 -0.1355 -0.1592
  318TIP3    H217527   1.764   2.734   7.063  0.4008 -1.0780 -0.3868
  319TIP3   OH217528   4.222   5.033   2.162  0.0610 -0.2103  0.2049
  319TIP3    H117529   4.256   4.987   2.238 -1.2877 -1.3086  0.1844
  319TIP3    H217530   4.162   5.099   2.198 -1.4956 -1.5170  0.0917
  320TIP3   OH217531   1.347   2.616   1.337 -0.5834  0.4551  0.2195
  320TIP3    H117532   1.299   2.537   1.361 -0.2830 -0.2860 -1.4726
  320TIP3    H217533   1.436   2.601   1.370 -0.4208 -0.1196 -0.4555
  321TIP3   OH217534   6.006   2.599   9.073 -0.2055 -0.2480  0.1429
  321TIP3    H117535   5.954   2.607   8.993 -1.5900 -1.8277  0.8122
  321TIP3    H217536   5.965   2.660   9.135 -0.5218 -0.6195  0.3037
  322TIP3   OH217537   4.298   3.592   0.466 -0.3631 -0.2088  0.4141
  322TIP3    H117538   4.264   3.634   0.545 -0.0532 -1.6268  1.3395
  322TIP3    H217539   4.389   3.623   0.460 -0.9321  1.3701 -0.4705
  323TIP3   OH217540   3.466   2.516   7.681  0.5240 -0.1745 -0.2642
  323TIP3    H117541   3.441   2.569   7.606 -1.0996 -2.2018 -1.2813
  323TIP3    H217542   3.561   2.516   7.681  0.6118  2.6624 -0.1695
  324TIP3   OH217543   0.664   5.799   6.880 -0.0005  0.3603  0.3700
  324TIP3    H117544   0.660   5.706   6.905 -0.6614  0.4128  0.4884
  324TIP3    H217545   0.587   5.811   6.824  0.3310  0.7352 -0.0113
  325TIP3   OH217546   1.266   2.345   1.000 -0.1933  0.3251  0.1949
  325TIP3    H117547   1.189   2.372   0.950 -1.6181  0.2052  2.1733
  325TIP3    H217548   1.235   2.342   1.091  2.2848  0.7294  1.1305
  326TIP3   OH217549   3.670   4.037   8.311 -0.0775  0.3384 -0.0705
  326TIP3    H117550   3.632   4.103   8.253 -2.4872  0.1338  1.1422
  326TIP3    H217551   3.734   3.991   8.257 -2.9301 -0.5437 -3.0041
  327TIP3   OH217552   5.280   2.862   7.480  0.5756  0.4440  0.1684
  327TIP3    H117553   5.336   2.940   7.485 -0.4771  1.3838 -1.6119
  327TIP3    H217554   5.228   2.864   7.560  1.3237  0.9564  0.6570
  328TIP3   OH217555   0.697   5.500   7.409 -0.4485 -0.1522 -0.8762
  328TIP3    H117556   0.603   5.487   7.419 -0.4299  1.2549  3.1004
  328TIP3    H217557   0.706   5.583   7.362 -1.4662  1.7125  1.9364
  329TIP3   OH217558   1.114   4.756   8.720 -0.7122 -0.4239  0.1422
  329TIP3    H117559   1.078   4.672   8.748  0.7418 -0.5114  1.9127
  329TIP3    H217560   1.186   4.732   8.661  0.4231 -0.4988  1.5207
  330TIP3   OH217561   1.710   3.604   2.240  0.8337 -0.0744  0.0502
  330TIP3    H117562   1.656   3.571   2.169 -1.6703  2.6796  0.4969
  330TIP3    H217563   1.678   3.558   2.318  0.8358 -0.2085 -0.0282
  331TIP3   OH217564   3.470   0.004   7.744  0.8325 -0.3139 -0.0231
  331TIP3    H117565   3.485   0.098   7.739 -2.0710  0.2463  0.2541
  331TIP3    H217566   3.546  -0.030   7.791  1.3503  2.0422  0.9706
  332TIP3   OH217567   5.004   3.583   6.943 -0.5353 -0.4493  0.4159
  332TIP3    H117568   4.931   3.585   6.881 -0.0449 -3.1110 -0.3821
  332TIP3    H217569   5.068   3.524   6.902  0.4755 -1.0935  2.7558
  333TIP3   OH217570   0.062   0.968   8.626 -0.6757 -0.6530  0.4554
  333TIP3    H117571   0.142   0.982   8.676 -0.7540  1.4159  0.0772
  333TIP3    H217572   0.089   0.976   8.535 -0.6955 -3.5524  0.1010
  334TIP3   OH217573   2.974   2.426   7.169  1.0357 -0.0976 -0.4597
  334TIP3    H117574   2.953   2.334   7.188 -0.7576  0.8791  3.1957
  334TIP3    H217575   2.908   2.452   7.104  0.1627 -0.8813  0.0791
  335TIP3   OH217576   3.822   2.961   1.721  0.3000 -0.4038  0.1530
  335TIP3    H117577   3.775   3.042   1.700  0.5824 -0.2285  0.2010
  335TIP3    H217578   3.845   2.924   1.636  1.1806  0.1547  0.1401
  336TIP3   OH217579   5.495   3.816   2.607 -0.0334 -0.6240  0.7677
  336TIP3    H117580   5.422   3.865   2.570  0.3441 -0.8211 -0.2738
  336TIP3    H217581   5.525   3.870   2.681  0.4426  0.7885 -0.4166
  337TIP3   OH217582   5.229   0.131   0.087 -0.4030  0.0685 -0.3858
  337TIP3    H117583   5.229   0.095   0.176 -0.1220  0.8569 -0.0627
  337TIP3    H217584   5.259   0.058   0.033 -0.4233 -0.3743  0.1822
  338TIP3   OH217585   2.089   0.789   7.837 -0.1968  0.2149  0.0431
  338TIP3    H117586   2.105   0.793   7.932  1.4445  0.2914 -0.2019
  338TIP3    H217587   2.135   0.866   7.803  1.0004 -0.9334 -1.0178
  339TIP3   OH217588   3.199   0.853   8.943 -0.3028 -0.0621 -0.4409
  339TIP3    H117589   3.235   0.816   9.024  1.8379  1.1350 -0.7829
  339TIP3    H217590   3.108   0.876   8.966 -0.0905 -0.7505  1.2715
  340TIP3   OH217591   6.073   4.523   8.487  0.2221  0.1125  0.1701
  340TIP3    H117592   6.020   4.556   8.559 -0.2351  0.8245 -0.4768
  340TIP3    H217593   6.136   4.593   8.469 -0.8026  0.7186 -1.2611
  341TIP3   OH217594   0.777   5.041   8.386 -0.3750  0.4517  0.0460
  341TIP3    H117595   0.738   4.983   8.321 -1.0711 -0.2358  1.0480
  341TIP3    H217596   0.827   4.983   8.443  1.5987  1.2333 -0.8026
  342TIP3   OH217597   4.868   1.550   6.929  0.1308  0.4671 -0.2552
  342TIP3    H117598   4.898   1.461   6.950  0.1003  0.3671 -0.6200
  342TIP3    H217599   4.916   1.573   6.849 -1.1894  0.0674 -1.1911
  343TIP3   OH217600   4.321   3.184   9.054  0.2259 -0.4987 -0.2480
  343TIP3    H117601   4.337   3.161   9.146  1.0351 -1.8491 -0.6853
  343TIP3    H217602   4.342   3.104   9.006  0.8585  0.5049 -1.7158
  344TIP3   OH217603   3.996   2.492   2.819 -0.1147  0.1261 -0.1573
  344TIP3    H117604   3.964   2.473   2.907  2.6924  1.4234  1.2829
  344TIP3    H217605   4.032   2.409   2.788 -3.1443 -0.9571 -1.1962
  345TIP3   OH217606   3.290   5.828   8.970  0.0822  0.0154  0.2328
  345TIP3    H117607   3.259   5.898   9.027 -0.2586 -0.2583  0.3856
  345TIP3    H217608   3.331   5.765   9.029  2.6433  1.2291 -0.1124
  346TIP3   OH217609   6.355   0.114   1.284  0.0402 -0.4268 -0.5019
  346TIP3    H117610   6.262   0.106   1.308  0.3292 -0.6128  0.6095
  346TIP3    H217611   6.388   0.184   1.339  0.6549 -0.6375 -0.5947
  347TIP3   OH217612   4.417   0.449   0.751 -0.3820 -0.0711  0.5780
  347TIP3    H117613   4.427   0.542   0.735  1.4221 -0.1682  0.9247
  347TIP3    H217614   4.406   0.410   0.665  2.6983  0.1116 -0.0306
  348TIP3   OH217615   3.221   2.190   1.455  0.0482 -0.7714  0.0078
  348TIP3    H117616   3.270   2.215   1.533 -0.7212 -0.1577  0.3146
  348TIP3    H217617   3.129   2.195   1.483 -0.4305  2.3751 -1.7192
  349TIP3   OH217618   1.145   4.508   7.601  0.6342  0.0163  0.2038
  349TIP3    H117619   1.213   4.475   7.542  0.5597  2.9121 -1.6971
  349TIP3    H217620   1.064   4.501   7.550  0.3140  1.1549  0.5293
  350TIP3   OH217621   0.186   5.113   8.131 -0.3156 -0.6509  0.4418
  350TIP3    H117622   0.192   5.096   8.037  1.6011 -1.9457  0.7516
  350TIP3    H217623   0.208   5.205   8.141  1.5801 -0.9908 -0.2316
  351TIP3   OH217624   5.340   4.564   3.345 -0.1821 -0.0473 -0.8862
  351TIP3    H117625   5.366   4.620   3.272 -1.0939  1.6294  0.0189
  351TIP3    H217626   5.265   4.514   3.312  0.2752 -0.3368 -1.5159
  352TIP3   OH217627   1.254   0.816   0.637  0.1719 -0.7611  1.0141
  352TIP3    H117628   1.180   0.761   0.608  0.1981 -1.3296  1.9828
  352TIP3    H217629   1.329   0.781   0.589 -0.5069  1.4181 -1.9406
  353TIP3   OH217630   1.909   4.987   0.497  0.0352 -0.3900  0.3551
  353TIP3    H117631   1.827   5.024   0.464 -0.1112 -0.9633  0.0491
  353TIP3    H217632   1.973   5.006   0.428 -0.0307 -0.6625  0.2169
  354TIP3   OH217633   4.011   2.874   0.829 -0.2159  0.2245  0.4017
  354TIP3    H117634   4.083   2.841   0.776 -0.5366 -0.3794  0.3259
  354TIP3    H217635   4.044   2.871   0.919  0.3301  1.2564  0.2406
  355TIP3   OH217636   6.247   2.939   2.052  0.1946 -0.0862 -0.2737
  355TIP3    H117637   6.318   2.876   2.042  0.7769  0.3027  1.0538
  355TIP3    H217638   6.186   2.919   1.981 -0.2855 -2.9779  0.7950
  356TIP3   OH217639   5.661   4.915   7.238  0.8680  0.0754 -0.7058
  356TIP3    H117640   5.584   4.951   7.194  1.2239  1.3726 -0.3045
  356TIP3    H217641   5.710   4.992   7.268  0.4242 -0.7016  2.3459
  357TIP3   OH217642   0.198   4.106   1.454  0.1289  0.4915 -0.1481
  357TIP3    H117643   0.288   4.080   1.472 -0.6533 -0.8305  2.2177
  357TIP3    H217644   0.195   4.199   1.474  0.9707  0.5758 -0.3701
  358TIP3   OH217645   4.612   0.047   8.209  0.2504  0.0961 -0.2724
  358TIP3    H117646   4.605   0.043   8.305  0.5679  0.6901 -0.2175
  358TIP3    H217647   4.684   0.108   8.193 -0.7582  1.1603 -0.9038
  359TIP3   OH217648   5.488   3.288   7.701  0.2056  0.6723 -0.2229
  359TIP3    H117649   5.416   3.288   7.764 -0.0999  0.5617 -0.5687
  359TIP3    H217650   5.564   3.314   7.752  0.0260  0.2572  0.2647
  360TIP3   OH217651   3.131   1.339   0.931  0.1020 -0.8071 -0.3464
  360TIP3    H117652   3.056   1.330   0.991  0.8730 -1.7860  0.5221
  360TIP3    H217653   3.130   1.430   0.904 -0.6292 -0.4847  0.7062
  361TIP3   OH217654   0.990   1.211   9.068 -0.3020 -0.2221 -0.3731
  361TIP3    H117655   1.002   1.240   9.159 -1.0121 -0.0434 -0.3349
  361TIP3    H217656   1.070   1.161   9.049 -0.0518 -0.0852  0.2796
  362TIP3   OH217657   5.768   5.649   7.791 -0.7197  0.6402 -0.8022
  362TIP3    H117658   5.815   5.607   7.719 -1.8018  0.8151 -1.6201
  362TIP3    H217659   5.753   5.579   7.854  2.0220  0.8760  0.2587
  363TIP3   OH217660   4.767   5.442   2.031  0.0385 -0.0470 -0.4262
  363TIP3    H117661   4.700   5.506   2.007 -0.6391 -0.2989  0.7234
  363TIP3    H217662   4.765   5.378   1.960 -1.5248 -0.4888 -0.0218
  364TIP3   OH217663   2.633   2.508   6.348 -0.3510 -0.5678  0.2602
  364TIP3    H117664   2.595   2.520   6.435 -1.4605  0.3802 -0.3244
  364TIP3    H217665   2.721   2.475   6.364 -0.3456  0.1159  1.7432
  365TIP3   OH217666   2.234   2.679   7.273  0.2112  0.6344  0.0359
  365TIP3    H117667   2.171   2.739   7.314 -0.5437 -0.2283  0.1890
  365TIP3    H217668   2.267   2.626   7.346 -0.6320 -0.4556 -0.3423
  366TIP3   OH217669   2.430   0.388   0.300  0.2350  0.2799 -0.2376
  366TIP3    H117670   2.422   0.368   0.393 -1.8062  1.6135 -0.0639
  366TIP3    H217671   2.488   0.320   0.265  0.6138 -0.5536  1.8812
  367TIP3   OH217672   0.288   1.439   8.537  0.2845 -0.0387 -0.4719
  367TIP3    H117673   0.297   1.532   8.515  1.3224  0.5940  2.1804
  367TIP3    H217674   0.378   1.407   8.543 -0.0384 -0.9898 -0.4961
  368TIP3   OH217675   2.018   3.862   8.162  0.3085 -0.0516 -0.4044
  368TIP3    H117676   1.932   3.857   8.120  0.5795 -1.5187 -0.8417
  368TIP3    H217677   2.039   3.956   8.164 -1.0898  0.2812 -0.7047
  369TIP3   OH217678   2.232   4.038   2.049  0.1190 -0.2161  0.0072
  369TIP3    H117679   2.241   4.091   1.969  1.2138 -1.4859 -0.7542
  369TIP3    H217680   2.309   4.061   2.101 -1.7168  2.3158  1.8349
  370TIP3   OH217681   2.933   5.884   1.085  0.3232 -0.1176 -0.2409
  370TIP3    H117682   2.914   5.912   1.174 -1.7867  0.0987 -0.7018
  370TIP3    H217683   2.970   5.796   1.094  2.6416  0.8761  0.9381
  371TIP3   OH217684   0.336   0.127   8.034  0.2837  0.0531  0.2825
  371TIP3    H117685   0.344   0.142   7.940 -1.1341 -0.5920  0.0318
  371TIP3    H217686   0.280   0.197   8.065  0.1456 -0.1577  0.5150
  372TIP3   OH217687   5.790   2.826   7.964 -0.0680 -0.1821  0.0064
  372TIP3    H117688   5.798   2.782   8.048  0.4785 -2.5981 -1.2134
  372TIP3    H217689   5.791   2.919   7.985  2.2429 -0.6514  2.5130
  373TIP3   OH217690   2.206   1.024   6.211  0.0536  0.5102  0.1054
  373TIP3    H117691   2.203   1.103   6.157  1.4766  1.6076  1.5500
  373TIP3    H217692   2.163   0.957   6.158 -0.4960  2.0528 -1.4788
  374TIP3   OH217693   5.236   4.062   7.165  0.1036 -0.7120 -0.3628
  374TIP3    H117694   5.306   4.119   7.197 -1.2924  0.4526  0.7851
  374TIP3    H217695   5.239   3.986   7.224  0.9724 -1.1229 -0.9148
  375TIP3   OH217696   5.604   4.288   0.599  0.3863 -0.0854  0.0801
  375TIP3    H117697   5.567   4.201   0.580  0.3283  0.2331 -1.4352
  375TIP3    H217698   5.560   4.346   0.537  0.0177  1.1514  1.4648
  376TIP3   OH217699   2.138   4.796   9.221  0.8228 -0.1558  0.4843
  376TIP3    H117700   2.164   4.798   9.129  1.8885  1.5220  0.7767
  376TIP3    H217701   2.147   4.705   9.246  0.4146 -0.6681 -1.0831
  377TIP3   OH217702   1.038   0.244   1.417  0.1457 -0.2486 -0.5628
  377TIP3    H117703   1.017   0.172   1.358  0.4349  0.0778 -1.0649
  377TIP3    H217704   1.063   0.316   1.360 -0.1609  0.2645 -0.0682
  378TIP3   OH217705   0.985   1.880   8.063  0.5029  0.3159  0.6303
  378TIP3    H117706   1.033   1.942   8.008  0.7992  0.8433  1.4664
  378TIP3    H217707   0.904   1.863   8.015  1.6653 -0.9151 -1.0137
  379TIP3   OH217708   1.999   1.809   0.018 -0.4046 -0.7812  1.0856
  379TIP3    H117709   2.055   1.887   0.012 -1.4987  0.1485  2.3880
  379TIP3    H217710   1.912   1.840  -0.009 -0.3988 -2.1682 -0.7681
  380TIP3   OH217711   2.350   0.684   8.201 -0.0069  0.4799  0.1259
  380TIP3    H117712   2.372   0.612   8.259  0.4893 -0.5059 -1.2182
  380TIP3    H217713   2.435   0.717   8.171 -0.2581  0.7695 -0.2811
  381TIP3   OH217714   5.274   2.730   9.172 -0.2670  0.2870 -0.2445
  381TIP3    H117715   5.336   2.725   9.100 -0.9143  0.4460 -0.8253
  381TIP3    H217716   5.314   2.678   9.242  1.1470  1.4657 -0.1223
  382TIP3   OH217717   5.316   1.477   6.986  0.3562  0.3321 -0.1078
  382TIP3    H117718   5.387   1.520   7.034 -0.8657  2.1296  0.2138
  382TIP3    H217719   5.277   1.548   6.934  1.4005 -1.4294 -3.6021
  383TIP3   OH217720   6.395   5.914   1.449  0.0882  0.2558 -0.5437
  383TIP3    H117721   6.343   5.913   1.529  1.5115 -1.0987  0.4119
  383TIP3    H217722   6.413   5.822   1.431  0.4162  0.5788 -2.0369
  384TIP3   OH217723   0.912   2.286   8.958  0.3727  0.0608 -0.0921
  384TIP3    H117724   0.937   2.330   8.877  1.1278  1.1841  0.7134
  384TIP3    H217725   0.831   2.329   8.984  0.2106 -0.1943 -0.1768
  385TIP3   OH217726   2.252   2.475   1.549  0.6186  0.1613  0.1969
  385TIP3    H117727   2.322   2.410   1.543  1.5949  1.0975  1.1168
  385TIP3    H217728   2.240   2.490   1.642 -0.0676  0.8077  0.0143
  386TIP3   OH217729   6.363   4.871   0.903 -0.8886 -0.3620 -0.2109
  386TIP3    H117730   6.281   4.906   0.938  0.1710  1.3647  0.6301
  386TIP3    H217731   6.358   4.887   0.809 -1.5747 -0.4336 -0.1910
  387TIP3   OH217732   5.885   1.487   1.187 -0.5982  0.5300  0.1855
  387TIP3    H117733   5.909   1.402   1.226 -1.0231  0.5960  0.6003
  387TIP3    H217734   5.797   1.473   1.152 -1.3002  1.2058  1.5764
  388TIP3   OH217735   4.388   1.854   8.994  0.1726 -0.2476 -0.2894
  388TIP3    H117736   4.301   1.856   9.033  1.0618 -1.0411  1.9092
  388TIP3    H217737   4.431   1.933   9.027  0.1584  0.3796 -1.7332
  389TIP3   OH217738   1.216   5.746   0.714  0.2331  0.7357  0.5579
  389TIP3    H117739   1.272   5.669   0.713 -1.4863 -0.5680 -1.0873
  389TIP3    H217740   1.257   5.806   0.652 -0.7137 -0.6853 -1.5586
  390TIP3   OH217741   2.482   5.333   9.288  0.2243  0.2732  0.5856
  390TIP3    H117742   2.497   5.238   9.294  2.3517  0.5038 -0.4528
  390TIP3    H217743   2.549   5.365   9.228 -2.1794  2.0878 -1.3286
  391TIP3   OH217744   4.434   6.448   7.163 -0.0819 -0.2200 -0.6369
  391TIP3    H117745   4.442   6.408   7.077  0.5636 -0.4269 -0.4828
  391TIP3    H217746   4.350   6.417   7.196  0.5303 -1.6984 -0.4012
  392TIP3   OH217747   4.180   4.296   8.664 -0.5084  0.1031  0.0324
  392TIP3    H117748   4.179   4.200   8.671  1.4653  0.0872  0.9273
  392TIP3    H217749   4.262   4.316   8.618 -0.0736  1.3812  1.2545
  393TIP3   OH217750   0.628   2.730   8.883  0.0718  0.5624 -0.4731
  393TIP3    H117751   0.652   2.642   8.910 -1.2034  0.8754  2.0105
  393TIP3    H217752   0.559   2.718   8.818 -1.8909 -0.3782  1.6485
  394TIP3   OH217753   3.901   2.880   8.021 -0.2217 -0.0228 -0.5596
  394TIP3    H117754   3.970   2.921   7.970 -0.1113  1.5770  0.7722
  394TIP3    H217755   3.824   2.935   8.006 -0.3733  0.0397  0.3800
  395TIP3   OH217756   3.963   5.386   0.384  0.2923 -0.5465  0.0760
  395TIP3    H117757   3.947   5.345   0.299 -1.9350 -0.3587  0.3330
  395TIP3    H217758   3.946   5.317   0.448 -0.4668 -0.0679  0.4109
  396TIP3   OH217759   6.263   2.134   8.133  0.4009 -0.9530  0.8252
  396TIP3    H117760   6.196   2.149   8.200  0.2842 -2.2090  1.0227
  396TIP3    H217761   6.229   2.175   8.054  0.5576  0.5803  1.5349
  397TIP3   OH217762   5.583   6.080   7.878 -0.1602 -0.0328  0.8368
  397TIP3    H117763   5.588   6.064   7.784 -2.2122  1.9594  0.2858
  397TIP3    H217764   5.578   5.993   7.917 -2.1352 -0.9111 -1.1573
  398TIP3   OH217765   1.758   4.864   0.680  0.4524  0.3000  0.5300
  398TIP3    H117766   1.820   4.905   0.619  0.7730 -0.7332  0.1414
  398TIP3    H217767   1.672   4.895   0.651  0.7197  1.1468  0.6083
  399TIP3   OH217768   5.426   5.589   7.900  0.5011 -0.0332  0.2214
  399TIP3    H117769   5.505   5.598   7.953  0.0450 -0.2860  0.9650
  399TIP3    H217770   5.443   5.512   7.845 -0.2687 -1.8185  2.3277
  400TIP3   OH217771   2.439   3.457   8.073  0.3694  0.2187 -0.2377
  400TIP3    H117772   2.489   3.538   8.074  1.5947 -0.5091 -0.1277
  400TIP3    H217773   2.501   3.391   8.040 -0.7936 -0.5461 -0.9803
  401TIP3   OH217774   2.193   1.278   2.325  0.3820 -0.0842 -0.4671
  401TIP3    H117775   2.236   1.260   2.241 -1.3202  2.5204 -2.0318
  401TIP3    H217776   2.259   1.322   2.377  0.4592  1.5532 -1.8627
  402TIP3   OH217777   3.984   5.235   8.797 -0.0128 -0.0769 -0.6450
  402TIP3    H117778   3.967   5.141   8.787  1.1161 -0.0776 -3.6180
  402TIP3    H217779   4.021   5.244   8.885  0.9950 -2.6141 -0.7388
  403TIP3   OH217780   0.360   5.614   9.002  0.1908  0.1859  0.4484
  403TIP3    H117781   0.334   5.552   8.934  1.6443 -0.1180  0.1337
  403TIP3    H217782   0.395   5.560   9.073  0.9290  0.6007  0.4159
  404TIP3   OH217783   2.943   0.964   8.976 -0.1238  0.5596 -0.3265
  404TIP3    H117784   2.958   1.058   8.965 -0.0417  0.4962 -0.7808
  404TIP3    H217785   2.847   0.955   8.973 -0.1332  0.6318 -0.2508
  405TIP3   OH217786   0.408   4.400   6.949  0.2163 -0.5242  0.7209
  405TIP3    H117787   0.449   4.469   6.896 -1.2758 -0.5811 -0.5608
  405TIP3    H217788   0.356   4.349   6.887 -1.2786 -0.8490  2.1766
  406TIP3   OH217789   5.540   2.171   0.876 -0.8156  0.6957  0.3134
  406TIP3    H117790   5.538   2.104   0.944 -0.4204  1.4481  1.0813
  406TIP3    H217791   5.462   2.153   0.822 -0.6090 -0.4804  0.3890
  407TIP3   OH217792   5.895   3.699   9.317  0.0538  0.0430 -0.3491
  407TIP3    H117793   5.879   3.614   9.277  0.0267 -1.2808  2.2611
  407TIP3    H217794   5.980   3.726   9.282  0.5447 -1.5517 -0.4721
  408TIP3   OH217795   3.471   2.578   8.351 -0.1475 -0.0413 -0.4969
  408TIP3    H117796   3.423   2.498   8.372 -1.4424  0.6528 -0.7404
  408TIP3    H217797   3.548   2.575   8.407 -0.9672 -0.7092  0.6289
  409TIP3   OH217798   4.276   3.575   2.183 -0.5501 -0.3586  0.3022
  409TIP3    H117799   4.186   3.575   2.152 -0.4808  0.6988  0.0366
  409TIP3    H217800   4.269   3.586   2.278 -0.6990  1.4862  0.1127
  410TIP3   OH217801   2.591   0.896   6.546 -0.3670 -0.6103 -0.1729
  410TIP3    H117802   2.632   0.831   6.490 -0.0524 -1.9690  1.5454
  410TIP3    H217803   2.498   0.893   6.524 -0.8597 -3.7554  1.7500
  411TIP3   OH217804   1.355   5.553   9.255  0.6457  0.1181  1.0691
  411TIP3    H117805   1.404   5.618   9.204 -0.7948  0.4779  0.0806
  411TIP3    H217806   1.394   5.469   9.229 -1.2546  0.0857 -2.2528
  412TIP3   OH217807   4.017   4.392   1.140 -0.3886 -0.1962 -0.4795
  412TIP3    H117808   4.066   4.450   1.082  3.5437  1.0929  3.5129
  412TIP3    H217809   4.039   4.304   1.111  2.4726  0.4055 -0.4039
  413TIP3   OH217810   2.214   2.232   2.262  0.4623 -0.4894 -0.2605
  413TIP3    H117811   2.169   2.266   2.184 -1.2954 -3.0626 -0.5050
  413TIP3    H217812   2.150   2.173   2.302  1.8021 -0.2436  2.4420
  414TIP3   OH217813   5.366   4.745   3.129 -0.2653 -0.3150  0.5450
  414TIP3    H117814   5.382   4.839   3.130 -2.0377  0.0350 -0.4291
  414TIP3    H217815   5.403   4.715   3.046 -0.7233 -0.2663  0.3206
  415TIP3   OH217816   1.132   2.833   8.044 -0.5978 -0.1090 -0.0395
  415TIP3    H117817   1.148   2.918   8.086 -0.9295  0.3127 -0.7352
  415TIP3    H217818   1.171   2.843   7.957  0.3919 -1.0879  0.2732
  416TIP3   OH217819   2.312   4.187   1.218 -0.2897 -0.1099  0.1228
  416TIP3    H117820   2.231   4.135   1.216 -0.0513 -0.6465  2.0815
  416TIP3    H217821   2.381   4.123   1.232  0.1502  0.5717  1.2461
  417TIP3   OH217822   3.740   4.907   2.272 -0.9211 -0.0951 -0.2446
  417TIP3    H117823   3.662   4.934   2.225 -0.1891  0.4317 -1.2092
  417TIP3    H217824   3.739   4.811   2.268 -1.2152 -0.0711 -0.7597
  418TIP3   OH217825   3.935   5.297   8.504 -0.3304 -0.5350  0.4205
  418TIP3    H117826   3.877   5.221   8.511  2.3847 -2.6240  2.5983
  418TIP3    H217827   3.978   5.303   8.589  1.6696  1.7236 -0.6017
  419TIP3   OH217828   3.327   5.509   1.595  0.0558  0.0690  0.5370
  419TIP3    H117829   3.345   5.566   1.670 -0.1951  0.8149  0.0543
  419TIP3    H217830   3.306   5.424   1.633  0.7920  0.2041  1.2672
  420TIP3   OH217831   1.962   1.854   0.519  0.2596 -0.7165  0.4537
  420TIP3    H117832   2.010   1.811   0.591  1.8564  0.2028  0.0025
  420TIP3    H217833   1.870   1.843   0.542  0.7029 -1.1479  2.2386
  421TIP3   OH217834   3.401   3.678   1.018  0.0501 -0.3349  0.1670
  421TIP3    H117835   3.465   3.631   1.072  0.1714 -1.1582 -0.6695
  421TIP3    H217836   3.317   3.663   1.062 -0.1476 -2.6399 -0.8613
  422TIP3   OH217837   6.076   4.173   1.413 -0.0055 -0.2112  0.0638
  422TIP3    H117838   6.160   4.186   1.456  0.5864  0.4822 -1.2344
  422TIP3    H217839   6.070   4.244   1.349 -1.0674 -0.8938 -0.6424
  423TIP3   OH217840   5.612   2.426   0.821 -0.4800  0.4141 -0.4206
  423TIP3    H117841   5.597   2.334   0.843  0.0821 -0.0430 -1.7904
  423TIP3    H217842   5.707   2.436   0.826 -0.5712  1.0248  0.0981
  424TIP3   OH217843   1.866   2.358   0.543  0.2075 -0.1300  0.5169
  424TIP3    H117844   1.812   2.403   0.478  0.0654 -0.4308  0.4260
  424TIP3    H217845   1.887   2.426   0.607 -0.3739 -0.0389  0.6162
  425TIP3   OH217846   4.633   2.804   7.956  0.7468  0.0760  0.1901
  425TIP3    H117847   4.714   2.758   7.979  0.0080 -0.9894  0.7646
  425TIP3    H217848   4.582   2.738   7.909 -0.2482  0.3772  0.8312
  426TIP3   OH217849   1.962   3.472   0.327 -0.0049  0.3136 -0.6436
  426TIP3    H117850   2.007   3.410   0.385 -1.8616 -1.4617 -1.0153
  426TIP3    H217851   1.904   3.418   0.274 -0.6501  2.2400 -2.0104
  427TIP3   OH217852   5.558   0.040   7.473  0.6815 -0.1760  0.1251
  427TIP3    H117853   5.488   0.085   7.520  1.7134  1.6146  0.0162
  427TIP3    H217854   5.550  -0.051   7.500 -2.9295 -0.4635 -1.3696
  428TIP3   OH217855   4.150   5.097   0.491 -0.5669  0.1287 -0.5077
  428TIP3    H117856   4.205   5.043   0.547  0.0933  1.1754 -0.1125
  428TIP3    H217857   4.186   5.087   0.403 -0.2813  0.1318 -0.3912
  429TIP3   OH217858   3.217   1.726   7.796 -0.1661  0.4239 -0.1003
  429TIP3    H117859   3.275   1.802   7.787 -0.5736  0.5912 -1.5583
  429TIP3    H217860   3.159   1.731   7.720 -0.5825 -1.0335  0.0908
  430TIP3   OH217861   4.090   4.552   0.941 -0.2761 -0.4650  0.0930
  430TIP3    H117862   4.082   4.517   0.852 -0.8272  1.0937 -0.5119
  430TIP3    H217863   4.170   4.606   0.938 -0.0928 -0.7016  0.6485
  431TIP3   OH217864   2.902   1.919   9.161  0.1881  0.1379 -0.1520
  431TIP3    H117865   2.959   1.844   9.147 -0.2817  0.0711 -1.9681
  431TIP3    H217866   2.837   1.888   9.224  0.0816 -0.9554 -0.7736
  432TIP3   OH217867   1.549   2.798   1.154  0.6694  0.5060  0.4680
  432TIP3    H117868   1.507   2.782   1.239  1.3285  2.3176  1.1835
  432TIP3    H217869   1.483   2.772   1.090  0.9110 -2.9599  1.4228
  433TIP3   OH217870   0.234   1.047   1.841 -0.0057  0.6306  0.0619
  433TIP3    H117871   0.181   1.108   1.892 -1.6644 -0.1231 -0.6967
  433TIP3    H217872   0.191   0.963   1.851  0.0192  0.3173 -1.9838
  434TIP3   OH217873   1.557   2.422   9.248  0.2404 -0.5174  0.0223
  434TIP3    H117874   1.551   2.512   9.217  0.1530 -1.1513 -1.9379
  434TIP3    H217875   1.470   2.402   9.280  0.2104  0.0277  0.2977
  435TIP3   OH217876   1.315   4.823   1.101 -0.1225  0.3584  0.6733
  435TIP3    H117877   1.321   4.768   1.179  0.0329 -0.4360  0.1161
  435TIP3    H217878   1.394   4.803   1.051 -1.3253 -0.9671 -0.8351
  436TIP3   OH217879   0.486   3.829   7.563  0.0338 -0.0964 -0.3256
  436TIP3    H117880   0.408   3.818   7.618  0.5783 -1.8975  0.1579
  436TIP3    H217881   0.457   3.802   7.475 -0.5825  1.8896 -0.7874
  437TIP3   OH217882   2.992   4.727   0.977  0.0767 -0.2025 -0.0728
  437TIP3    H117883   2.994   4.798   1.041 -0.8675  0.7657 -1.0702
  437TIP3    H217884   2.902   4.694   0.981  0.7196 -1.9937  1.0163
  438TIP3   OH217885   6.213   2.631   7.120  0.0179  0.5141  0.3687
  438TIP3    H117886   6.150   2.600   7.185  0.6880 -0.5122  0.5630
  438TIP3    H217887   6.225   2.724   7.140 -0.8401  0.5427  0.8109
  439TIP3   OH217888   1.991   5.176   8.756 -0.3963 -0.6476  0.1650
  439TIP3    H117889   2.020   5.256   8.800  0.7837 -0.8722 -0.1615
  439TIP3    H217890   1.915   5.204   8.704 -0.1697  0.2046  0.2687
  440TIP3   OH217891   4.677   1.144   6.817  0.3609 -0.1122 -0.6058
  440TIP3    H117892   4.653   1.151   6.725  0.5601  0.9945 -0.5899
  440TIP3    H217893   4.746   1.210   6.829  1.4714 -1.3250 -0.0304
  441TIP3   OH217894   5.318   1.409   8.529  0.1506 -0.5305 -0.0534
  441TIP3    H117895   5.378   1.462   8.476 -0.0421  1.3634  1.4849
  441TIP3    H217896   5.373   1.369   8.596 -0.2860  2.2686  2.1844
  442TIP3   OH217897   2.305   0.804   1.803 -0.4188 -0.3167 -0.3888
  442TIP3    H117898   2.224   0.842   1.838  0.1657  2.1534 -1.5366
  442TIP3    H217899   2.287   0.792   1.710  0.4796  0.1404 -0.6287
  443TIP3   OH217900   3.521   5.311   0.784 -0.0429  0.2888  0.2479
  443TIP3    H117901   3.595   5.352   0.829  0.6659 -1.8359  1.1614
  443TIP3    H217902   3.547   5.309   0.691  1.3808 -0.9697  0.6293
  444TIP3   OH217903   5.882   4.158   0.201 -0.6105  0.0836  0.0299
  444TIP3    H117904   5.913   4.107   0.276 -3.2362 -3.4607 -1.0421
  444TIP3    H217905   5.795   4.189   0.228 -0.4404  1.1666 -0.6029
  445TIP3   OH217906   4.089   6.189   0.022  0.1411 -0.0523 -0.0744
  445TIP3    H117907   4.036   6.205   0.099 -0.1159  0.2144 -0.3040
  445TIP3    H217908   4.144   6.267   0.014  0.6998 -0.4045  0.2661
  446TIP3   OH217909   4.415   4.522   0.567  0.0811 -0.0163 -0.1120
  446TIP3    H117910   4.343   4.459   0.558  1.0278 -1.2129  0.4436
  446TIP3    H217911   4.494   4.471   0.551  0.8098  1.3975 -1.2546
  447TIP3   OH217912   4.216   3.881   2.430 -0.3029 -0.4059 -0.2150
  447TIP3    H117913   4.236   3.788   2.439 -0.6451 -0.5142 -0.5518
  447TIP3    H217914   4.260   3.922   2.505  1.7135 -0.5334 -1.2691
  448TIP3   OH217915   0.089   1.203   0.893 -0.2248 -0.1245 -0.6668
  448TIP3    H117916   0.023   1.244   0.949  0.7977  0.4293  0.1756
  448TIP3    H217917   0.170   1.248   0.916  0.7420 -1.8800 -0.5275
  449TIP3   OH217918   3.522   2.004   2.305  0.3467 -0.1313 -0.0673
  449TIP3    H117919   3.517   1.914   2.337 -0.1730 -0.3078 -0.6373
  449TIP3    H217920   3.614   2.028   2.318  0.0522  0.0219  2.0964
  450TIP3   OH217921   4.815   5.697   2.412 -0.8699 -0.2297  0.4380
  450TIP3    H117922   4.832   5.606   2.389 -0.2280 -0.1261  0.4779
  450TIP3    H217923   4.722   5.710   2.393 -1.0133 -0.9451  0.6142
  451TIP3   OH217924   5.057   2.954   6.325 -0.0040  0.0043 -0.7667
  451TIP3    H117925   4.995   2.935   6.255  0.6823  0.7018 -1.5880
  451TIP3    H217926   5.005   3.002   6.390 -0.9203 -1.6312 -0.2266
  452TIP3   OH217927   4.744   3.660   9.267  0.6959 -0.3233 -0.3869
  452TIP3    H117928   4.665   3.666   9.212  1.6304  1.2277 -1.6500
  452TIP3    H217929   4.759   3.749   9.297  1.2549 -0.8385  0.9360
  453TIP3   OH217930   4.387   5.274   1.741 -0.2758  0.0926 -0.4363
  453TIP3    H117931   4.341   5.268   1.825 -1.1973  1.4773 -0.8103
  453TIP3    H217932   4.403   5.184   1.715 -3.6426 -0.5368 -0.7313
  454TIP3   OH217933   4.664   3.957   0.183  0.2810  0.0772 -0.8324
  454TIP3    H117934   4.679   3.876   0.232  1.1425 -1.1616 -3.0245
  454TIP3    H217935   4.752   3.987   0.161 -0.0610  1.2382 -0.6528
  455TIP3   OH217936   1.517   0.883   8.774 -0.9123 -0.0523  0.0993
  455TIP3    H117937   1.511   0.788   8.780 -1.7899 -0.1225 -1.2583
  455TIP3    H217938   1.474   0.904   8.691 -2.1851  1.6693  1.1223
  456TIP3   OH217939   2.494   3.207   0.910  0.7622 -0.7073 -0.0015
  456TIP3    H117940   2.540   3.202   0.994 -0.5965  0.0235  0.8193
  456TIP3    H217941   2.420   3.266   0.927 -1.5608 -3.2433 -0.7385
  457TIP3   OH217942   1.869   1.568   6.935  0.3165  0.1440 -0.7008
  457TIP3    H117943   1.845   1.543   7.024 -0.7822 -1.4328 -1.3967
  457TIP3    H217944   1.962   1.548   6.929  0.3374  0.0035  0.0035
  458TIP3   OH217945   0.161   5.920   8.675  0.0581 -0.1507 -0.0252
  458TIP3    H117946   0.240   5.911   8.622  0.1416 -1.1766  0.2574
  458TIP3    H217947   0.190   5.904   8.764 -0.4758 -0.5335  0.0791
  459TIP3   OH217948   4.554   0.922   8.814 -0.0449  0.2608  0.0109
  459TIP3    H117949   4.590   0.986   8.875  1.1465 -2.1735  2.0563
  459TIP3    H217950   4.460   0.924   8.830  0.0169  1.1538  0.3380
  460TIP3   OH217951   2.956   4.707   1.919  0.0167 -0.1245 -0.2881
  460TIP3    H117952   3.036   4.655   1.909  0.9605  1.3175 -0.6416
  460TIP3    H217953   2.928   4.725   1.829 -1.1817 -1.2749 -0.1719
  461TIP3   OH217954   1.007   6.023   6.564 -0.0484  0.2487 -0.2230
  461TIP3    H117955   0.953   6.015   6.485  1.2569  0.2785 -1.1454
  461TIP3    H217956   1.092   5.989   6.538  1.4215  3.3757  0.1305
  462TIP3   OH217957   1.181   0.692   8.776  0.6833 -0.0323  0.7391
  462TIP3    H117958   1.183   0.755   8.704  4.1447 -1.5810 -0.7736
  462TIP3    H217959   1.090   0.666   8.783 -0.0658  1.4927 -1.8957
  463TIP3   OH217960   4.285   1.419   7.732 -0.7542  0.7833  0.2026
  463TIP3    H117961   4.267   1.372   7.651 -2.1210  1.9185 -0.2148
  463TIP3    H217962   4.286   1.352   7.800 -0.4824 -0.0792 -0.6389
  464TIP3   OH217963   5.616   1.385   7.099 -0.0228 -0.3264  0.4901
  464TIP3    H117964   5.594   1.379   7.192  0.5566 -0.3469  0.6269
  464TIP3    H217965   5.560   1.320   7.057  1.7668 -2.4157  1.1785
  465TIP3   OH217966   2.717   4.892   8.645  0.2682 -0.2544  0.7242
  465TIP3    H117967   2.797   4.937   8.619  0.1593  0.6537  1.8563
  465TIP3    H217968   2.716   4.897   8.741 -0.5493 -1.3032  0.8005
  466TIP3   OH217969   1.025   5.572   1.727 -0.2024  0.6892  0.3673
  466TIP3    H117970   1.058   5.495   1.773 -1.8402  0.6813  1.6149
  466TIP3    H217971   0.930   5.564   1.732 -0.4457  3.1849  1.2278
  467TIP3   OH217972   2.363   5.585   8.362 -0.0395  0.6687  0.1186
  467TIP3    H117973   2.416   5.519   8.317 -0.9788 -0.0688  0.0703
  467TIP3    H217974   2.286   5.538   8.393 -1.3911  1.9891 -1.0533
  468TIP3   OH217975   5.252   0.580   8.346 -0.3591 -0.2287 -0.2302
  468TIP3    H117976   5.156   0.575   8.346 -0.3989  0.2947 -1.1278
  468TIP3    H217977   5.271   0.670   8.318  0.3936 -0.3567 -0.1367
  469TIP3   OH217978   2.297   5.491   2.038 -0.3830 -0.2944  0.1504
  469TIP3    H117979   2.356   5.472   1.965 -1.3740 -0.7568 -0.5438
  469TIP3    H217980   2.329   5.574   2.074  1.9208 -1.4838  1.0764
  470TIP3   OH217981   4.620   1.345   2.512 -0.3564  0.9055  0.0645
  470TIP3    H117982   4.526   1.365   2.512 -0.5408  0.2260  1.6133
  470TIP3    H217983   4.642   1.336   2.605  1.0336  0.1178 -0.3152
  471TIP3   OH217984   4.536   5.088   8.978  0.3667 -0.0593 -0.3633
  471TIP3    H117985   4.536   5.025   8.906 -1.2969 -0.9174  0.3296
  471TIP3    H217986   4.482   5.160   8.946 -1.0303 -0.7876  0.2540
  472TIP3   OH217987   5.345   5.430   1.874 -0.6084 -0.1822  0.1627
  472TIP3    H117988   5.343   5.354   1.933 -0.0323 -0.3841 -0.0778
  472TIP3    H217989   5.373   5.394   1.790  2.9509  0.7746  0.8024
  473TIP3   OH217990   2.962   1.001   2.086 -0.1976 -0.0698  0.7797
  473TIP3    H117991   2.981   0.952   2.166 -0.2278  1.0373  1.4877
  473TIP3    H217992   2.867   1.013   2.087 -0.1325  0.4512  0.8865
  474TIP3   OH217993   4.040   2.173   9.048  0.0014  0.5970 -0.1973
  474TIP3    H117994   4.015   2.193   8.958  2.0552 -1.5130 -1.3522
  474TIP3    H217995   4.130   2.205   9.056 -0.0474  0.4947  1.0341
  475TIP3   OH217996   0.893   5.955   6.318 -0.5962  0.2413  0.1629
  475TIP3    H117997   0.826   5.899   6.356  0.1720 -0.6945  0.1835
  475TIP3    H217998   0.931   5.904   6.247  0.4747  0.5022  0.5120
  476TIP3   OH217999   1.880   0.074   1.607  0.1504  0.5123 -0.3184
  476TIP3    H118000   1.872   0.164   1.640 -1.3096  0.6045 -0.8431
  476TIP3    H218001   1.852   0.019   1.681  0.3041  0.5271 -0.2486
  477TIP3   OH218002   1.309   4.639   0.620  0.4435  0.4086  0.3388
  477TIP3    H118003   1.281   4.615   0.709  1.4303  1.1838  0.8784
  477TIP3    H218004   1.227   4.656   0.574 -0.0807  0.3389  1.2064
  478TIP3   OH218005   2.609   0.416   2.091  0.5004  0.2217 -0.1704
  478TIP3    H118006   2.702   0.395   2.082  1.0696  2.9013 -1.6318
  478TIP3    H218007   2.608   0.507   2.119 -1.7146  0.3085 -0.3613
  479TIP3   OH218008   0.955   0.413   2.236  0.4758  0.2786  0.5752
  479TIP3    H118009   0.940   0.506   2.220 -2.3290  0.8421  4.8093
  479TIP3    H218010   0.892   0.368   2.179 -0.5140  1.2284  0.8929
  480TIP3   OH218011   5.545   3.238   8.177  0.4709  0.4205 -0.2799
  480TIP3    H118012   5.606   3.231   8.250 -0.2513  1.4214  0.4484
  480TIP3    H218013   5.597   3.269   8.104  1.0085  0.3864  0.0851
  481TIP3   OH218014   2.168   0.245   6.145 -0.6734 -0.0037  0.2000
  481TIP3    H118015   2.239   0.182   6.135  0.1466  0.4570  2.5772
  481TIP3    H218016   2.092   0.191   6.168 -1.0306 -0.4416 -1.8090
  482TIP3   OH218017   2.264   2.394   8.787 -0.2310  0.3071 -0.1576
  482TIP3    H118018   2.299   2.480   8.812  0.1053  0.9377 -2.5065
  482TIP3    H218019   2.193   2.415   8.726 -0.2008 -1.0775 -0.6991
  483TIP3   OH218020   2.334   4.978   7.315 -0.4678  0.3373 -0.0335
  483TIP3    H118021   2.240   4.976   7.296 -0.2172  0.1175 -1.2989
  483TIP3    H218022   2.376   4.978   7.229  0.7015  0.1765  0.5249
  484TIP3   OH218023   2.601   4.753   2.309  0.1460  0.0742  0.3232
  484TIP3    H118024   2.668   4.708   2.361  2.0086  1.7657 -0.4708
  484TIP3    H218025   2.632   4.748   2.219  0.0896  2.2213  0.1154
  485TIP3   OH218026   4.786   3.905   6.980 -0.3995 -0.1775 -0.0236
  485TIP3    H118027   4.762   3.863   6.898 -1.0597  0.3035 -0.0855
  485TIP3    H218028   4.702   3.935   7.017  0.0785  1.5866 -0.2672
  486TIP3   OH218029   5.011   4.369   9.157 -0.0318  0.4760  0.3500
  486TIP3    H118030   4.972   4.344   9.073 -0.5101  1.0758  0.3849
  486TIP3    H218031   4.941   4.417   9.202  0.1863  0.0711  1.1331
  487TIP3   OH218032   2.218   1.457   8.466 -0.0660  0.8913 -0.4448
  487TIP3    H118033   2.268   1.521   8.518 -0.5416 -0.2775  1.5483
  487TIP3    H218034   2.283   1.420   8.406  1.1032  0.6311  0.9059
  488TIP3   OH218035   5.904   4.770   9.132 -0.5305 -0.4390 -0.4340
  488TIP3    H118036   5.869   4.728   9.211  2.8555  2.3320  2.9012
  488TIP3    H218037   5.831   4.823   9.099 -1.7450 -0.7616  1.5671
  489TIP3   OH218038   0.248   0.185   1.487 -0.4508 -0.2548  0.5876
  489TIP3    H118039   0.153   0.193   1.494 -0.5194 -1.0609  0.7035
  489TIP3    H218040   0.272   0.122   1.555  0.1760 -0.0027  0.6091
  490TIP3   OH218041   5.269   0.784   9.110  0.2161 -0.3257 -0.2362
  490TIP3    H118042   5.192   0.799   9.165  0.5492  0.3486  0.0672
  490TIP3    H218043   5.261   0.693   9.081  0.6052 -1.0970  1.8658
  491TIP3   OH218044   2.740   0.050   0.541  0.4333 -0.4322  0.3801
  491TIP3    H118045   2.824   0.033   0.499 -0.2958 -0.6328 -1.0707
  491TIP3    H218046   2.750   0.017   0.630  1.4088 -1.8412 -0.2147
  492TIP3   OH218047   2.715   5.068   1.348  0.2908  0.3076 -0.3281
  492TIP3    H118048   2.757   5.124   1.413  0.0788 -0.4903  0.5235
  492TIP3    H218049   2.624   5.061   1.378  0.2428 -0.2282 -0.5896
  493TIP3   OH218050   0.566   6.154   9.397 -0.2760 -0.4022 -1.0816
  493TIP3    H118051   0.627   6.133   9.468  0.2062  0.0566 -1.3540
  493TIP3    H218052   0.593   6.097   9.325 -0.7033 -0.7963 -0.9359
  494TIP3   OH218053   4.237   5.530   1.116 -0.6075 -0.4920  0.4547
  494TIP3    H118054   4.263   5.595   1.182 -1.3536  0.8913 -0.5532
  494TIP3    H218055   4.312   5.470   1.111 -1.0159 -1.3996  3.4052
  495TIP3   OH218056   0.894   3.966   2.808 -0.4863  0.3139 -0.2447
  495TIP3    H118057   0.939   3.917   2.877 -1.6422 -0.4037  0.0249
  495TIP3    H218058   0.918   3.921   2.727  0.9121  1.1884 -0.3472
  496TIP3   OH218059   5.736   0.611   2.616 -0.0320 -0.1756  0.1229
  496TIP3    H118060   5.714   0.658   2.535 -0.9558 -1.2525 -0.2842
  496TIP3    H218061   5.690   0.659   2.685 -0.2884  0.0087 -0.1731
  497TIP3   OH218062   4.106   0.073   0.277  0.1636  0.2691  0.1926
  497TIP3    H118063   4.096   0.155   0.229  1.4167 -0.2920 -1.1265
  497TIP3    H218064   4.036   0.017   0.243 -0.3224  0.5849  0.6588
  498TIP3   OH218065   3.342   0.131   0.512  0.1019 -0.1630  0.3506
  498TIP3    H118066   3.319   0.223   0.527 -0.8618 -0.2603 -0.4223
  498TIP3    H218067   3.436   0.132   0.493  0.1204  0.6451  0.4672
  499TIP3   OH218068   2.598   5.726   7.914 -0.0599 -0.4766  0.4643
  499TIP3    H118069   2.684   5.691   7.936  0.6372  1.0671  0.3642
  499TIP3    H218070   2.565   5.764   7.996 -1.2381 -2.1513  0.8199
  500TIP3   OH218071   5.485   1.833   0.177  0.2677  0.2857 -0.3933
  500TIP3    H118072   5.579   1.820   0.161 -0.1584 -1.1152 -2.0530
  500TIP3    H218073   5.451   1.865   0.094 -0.7875  0.5247  0.1180
  501TIP3   OH218074   5.489   0.182   0.866 -0.3101 -0.2212 -0.3407
  501TIP3    H118075   5.543   0.145   0.936  1.0732  0.2241 -1.1325
  501TIP3    H218076   5.461   0.266   0.900  0.1325 -0.1226 -0.2112
  502TIP3   OH218077   5.111   1.791   9.128 -0.2613 -0.2210 -0.1499
  502TIP3    H118078   5.049   1.809   9.057 -1.7782 -0.0574  1.1676
  502TIP3    H218079   5.183   1.852   9.113 -1.2157  0.7948 -0.7590
  503TIP3   OH218080   2.799   6.380   6.981  0.2853 -0.1625 -0.1592
  503TIP3    H118081   2.845   6.421   6.908  0.9513 -2.0457 -0.8410
  503TIP3    H218082   2.860   6.314   7.014 -0.9823 -1.0712  0.4613
  504TIP3   OH218083   1.205   5.378   0.267 -0.5198 -0.6047  0.0640
  504TIP3    H118084   1.147   5.452   0.281 -1.6201 -1.3202 -0.5345
  504TIP3    H218085   1.286   5.401   0.312 -1.3519  0.3185  1.1218
  505TIP3   OH218086   4.525   5.433   7.531 -0.5293  0.2522 -0.9547
  505TIP3    H118087   4.482   5.362   7.483 -2.2267  1.2877 -1.0560
  505TIP3    H218088   4.598   5.460   7.474  0.1091 -1.3440 -0.9351
  506TIP3   OH218089   4.027   0.414   8.166 -0.5927  0.1184 -0.5521
  506TIP3    H118090   4.062   0.411   8.255 -1.5742 -1.0119 -0.1757
  506TIP3    H218091   3.932   0.405   8.177 -0.6324 -1.5084 -1.7482
  507TIP3   OH218092   1.893   1.616   6.487 -0.3206  0.2935 -0.6141
  507TIP3    H118093   1.853   1.557   6.423 -0.1143  0.2709 -0.7220
  507TIP3    H218094   1.984   1.588   6.492 -0.7492 -0.9943  1.1469
  508TIP3   OH218095   1.221   1.585   8.109  0.5663  0.1624  0.2086
  508TIP3    H118096   1.297   1.642   8.107  0.5021  0.2706  0.7751
  508TIP3    H218097   1.177   1.606   8.191 -0.6436  0.8311 -0.5841
  509TIP3   OH218098   6.361   4.131   2.753 -0.3843  0.0465  0.1752
  509TIP3    H118099   6.457   4.130   2.750 -0.3536  0.1538  0.8456
  509TIP3    H218100   6.338   4.222   2.734 -0.3534  0.0271  0.0409
  510TIP3   OH218101   3.458   1.715   7.019 -0.1126 -0.0466  0.0299
  510TIP3    H118102   3.471   1.762   6.937 -1.7650 -1.5489 -1.1687
  510TIP3    H218103   3.471   1.623   6.996 -3.7269 -0.8430  0.6114
  511TIP3   OH218104   2.875   4.863   7.540 -0.3263  0.0574 -0.4015
  511TIP3    H118105   2.915   4.844   7.455  0.8352 -1.0574  0.3655
  511TIP3    H218106   2.930   4.818   7.604 -1.3865  0.5609  0.9273
  512TIP3   OH218107   5.349   6.026   8.685 -0.1085 -0.0000 -0.4494
  512TIP3    H118108   5.402   6.066   8.754  1.7830 -1.6139 -0.8445
  512TIP3    H218109   5.259   6.042   8.712  0.4525 -1.8144  3.2661
  513TIP3   OH218110   4.880   5.701   8.368 -0.2591 -0.1915  0.5404
  513TIP3    H118111   4.892   5.795   8.376 -1.5541  0.0258  0.1804
  513TIP3    H218112   4.809   5.691   8.304  1.1750 -1.4693 -0.9454
  514TIP3   OH218113   0.798   3.047   0.634  0.0170 -0.5833 -0.4259
  514TIP3    H118114   0.827   3.102   0.707 -2.5107  1.4191 -0.7680
  514TIP3    H218115   0.737   2.985   0.674  2.2102 -2.7440 -0.1886
  515TIP3   OH218116   1.492   1.931   8.549  0.0627 -0.3944 -0.0525
  515TIP3    H118117   1.467   2.014   8.510 -0.8784 -0.5346  0.2238
  515TIP3    H218118   1.430   1.919   8.621  0.8865 -0.8049  0.6126
  516TIP3   OH218119   5.536   3.042   2.538  0.0668 -0.1058 -0.1604
  516TIP3    H118120   5.465   3.033   2.475  0.6722  0.4935 -0.9472
  516TIP3    H218121   5.581   3.123   2.513 -0.1092  0.5502  1.4857
  517TIP3   OH218122   0.789   0.280   2.055 -0.2756 -0.3163 -0.2240
  517TIP3    H118123   0.832   0.194   2.049 -0.1935 -0.2047 -1.3586
  517TIP3    H218124   0.840   0.337   1.998 -2.2129 -0.3057 -2.0795
  518TIP3   OH218125   2.125   3.103   1.139  0.0809  0.0511  0.5923
  518TIP3    H118126   2.081   3.074   1.059 -0.1074  0.3566  0.5849
  518TIP3    H218127   2.104   3.034   1.203  0.5294 -0.3751  0.2869
  519TIP3   OH218128   3.575   3.955   1.245  0.1808  0.1008  0.3825
  519TIP3    H118129   3.655   4.003   1.268  1.4289 -1.5598 -0.3586
  519TIP3    H218130   3.565   3.967   1.151 -0.0681 -0.2644  0.3594
  520TIP3   OH218131   2.937   4.063   1.873 -0.0127  0.2657  0.0493
  520TIP3    H118132   2.899   3.978   1.896 -1.1164  0.5568 -0.6219
  520TIP3    H218133   2.953   4.058   1.779 -0.8688  1.0867 -0.1514
  521TIP3   OH218134   4.731   4.306   8.626  0.1286 -0.0147  0.0622
  521TIP3    H118135   4.732   4.220   8.584  0.7394 -0.1416  0.3210
  521TIP3    H218136   4.726   4.368   8.553 -2.1233 -0.2798 -0.0721
  522TIP3   OH218137   4.164   1.044   8.592  0.1857  0.5365  0.4606
  522TIP3    H118138   4.092   1.103   8.612 -3.0596 -1.9656 -2.4769
  522TIP3    H218139   4.219   1.092   8.530  0.4374  2.0783  1.8350
  523TIP3   OH218140   1.680   3.143   8.576  0.0479 -0.0702 -0.2338
  523TIP3    H118141   1.627   3.203   8.629  0.7656  1.1889 -0.8918
  523TIP3    H218142   1.675   3.179   8.488 -0.3889 -1.6270 -0.8680
  524TIP3   OH218143   3.114   1.898   8.601 -0.2966  0.1016 -0.0296
  524TIP3    H118144   3.038   1.955   8.613 -1.9486 -0.9945 -3.5830
  524TIP3    H218145   3.183   1.955   8.568 -0.4233  0.7077  0.7414
  525TIP3   OH218146   1.181   2.499   9.091  0.5687 -0.0150  0.2468
  525TIP3    H118147   1.200   2.578   9.039  1.4035 -0.3256  0.0555
  525TIP3    H218148   1.092   2.474   9.066  1.2300 -0.6377 -1.6975
  526TIP3   OH218149   3.550   2.663   2.131  0.7088  0.6291 -0.4614
  526TIP3    H118150   3.570   2.651   2.224  0.7093  0.3771 -0.4943
  526TIP3    H218151   3.454   2.653   2.126  0.5985  1.5703 -0.3442
  527TIP3   OH218152   3.145   0.047   8.952  0.3803 -0.4880  0.5055
  527TIP3    H118153   3.137   0.134   8.912  0.5169 -0.7531 -0.1158
  527TIP3    H218154   3.239   0.030   8.953  0.4004 -0.3534  1.2413
  528TIP3   OH218155   4.829   6.056   0.305 -0.3443 -0.2047  0.3198
  528TIP3    H118156   4.737   6.055   0.329 -0.0115 -1.8610  1.7761
  528TIP3    H218157   4.870   6.115   0.368 -0.1453 -1.0069  0.9616
  529TIP3   OH218158   2.488   5.600   0.603  0.4556  0.2261 -0.1132
  529TIP3    H118159   2.395   5.579   0.611  0.6725 -2.1796 -2.2739
  529TIP3    H218160   2.511   5.641   0.686 -2.9216  2.7923 -0.2442
  530TIP3   OH218161   5.890   4.410   2.210  0.3745 -0.3540  0.3761
  530TIP3    H118162   5.931   4.390   2.294 -0.0350  2.3674  1.3147
  530TIP3    H218163   5.905   4.504   2.198 -1.7591 -0.1700 -1.3903
  531TIP3   OH218164   2.111   2.315   6.687 -0.2372 -0.2731  0.0924
  531TIP3    H118165   2.165   2.352   6.617  0.4399  0.1810  0.8373
  531TIP3    H218166   2.173   2.266   6.741 -0.3195  1.2330  1.6364
  532TIP3   OH218167   5.292   2.192   9.126 -0.3075  0.6401  0.3634
  532TIP3    H118168   5.372   2.157   9.087  0.5355  1.8948  0.8903
  532TIP3    H218169   5.319   2.220   9.214 -1.1657  1.6513  0.3281
  533TIP3   OH218170   2.195   3.926   6.979 -0.0239 -0.5489 -0.2788
  533TIP3    H118171   2.167   3.875   6.903  1.0556  0.0626 -1.1161
  533TIP3    H218172   2.135   4.001   6.980 -0.7447 -1.1163  0.1494
  534TIP3   OH218173   6.179   1.658   8.929  0.3313 -0.3484 -0.2507
  534TIP3    H118174   6.091   1.640   8.962  0.8620 -0.7856  0.9632
  534TIP3    H218175   6.237   1.643   9.004  1.4741 -0.3622 -1.1101
  535TIP3   OH218176   2.051   5.061   9.364  0.6126  0.2973  0.0010
  535TIP3    H118177   2.041   5.003   9.289  2.2379 -1.4855  1.0521
  535TIP3    H218178   2.060   5.149   9.326 -0.2154 -0.3365 -1.7502
  536TIP3   OH218179   2.103   4.366   1.672  0.8481 -0.5839  0.1351
  536TIP3    H118180   2.173   4.317   1.628  1.6726  0.8716 -0.2424
  536TIP3    H218181   2.023   4.336   1.629  1.5359 -0.0293 -1.6149
  537TIP3   OH218182   5.978   2.485   6.601 -0.0499  0.5511 -0.4607
  537TIP3    H118183   6.020   2.399   6.610 -0.3962  0.5540  1.6747
  537TIP3    H218184   5.985   2.505   6.508  0.3486 -1.6329 -0.9662
  538TIP3   OH218185   6.346   3.625   8.983  0.7202  0.2002 -0.1987
  538TIP3    H118186   6.397   3.681   9.041 -0.3369  0.2753  0.7078
  538TIP3    H218187   6.388   3.540   8.988 -0.0678 -0.1357  1.7298
  539TIP3   OH218188   0.860   6.229   6.712 -0.1101  0.0062  0.4942
  539TIP3    H118189   0.875   6.151   6.658  0.1946  0.5800 -0.2670
  539TIP3    H218190   0.883   6.302   6.655 -0.6614  0.6706  1.1083
  540TIP3   OH218191   4.012   2.066   8.578 -0.0715  0.4082 -0.0287
  540TIP3    H118192   3.995   2.088   8.486 -2.2857 -0.6633  0.0697
  540TIP3    H218193   3.959   1.989   8.595  2.2557 -0.9878  1.4983
  541TIP3   OH218194   2.600   3.837   7.849  0.2491 -0.1355 -0.1211
  541TIP3    H118195   2.675   3.795   7.891 -0.4111  0.0706  1.3121
  541TIP3    H218196   2.533   3.839   7.917 -0.7776  0.4286 -1.1303
  542TIP3   OH218197   3.355   5.494   8.376 -0.0716 -0.3836  0.2383
  542TIP3    H118198   3.425   5.438   8.407 -0.5043 -0.9940  0.1309
  542TIP3    H218199   3.322   5.451   8.297 -0.9025 -0.3772  0.5715
  543TIP3   OH218200   5.484   4.211   1.505 -0.5180  0.5118 -0.3776
  543TIP3    H118201   5.561   4.165   1.469 -0.3212 -0.1461  0.8386
  543TIP3    H218202   5.520   4.293   1.539 -0.8234  1.4846 -2.2867
  544TIP3   OH218203   1.966   1.274   9.336  0.4273 -0.0042  0.1781
  544TIP3    H118204   1.914   1.353   9.350 -1.0826 -0.6289 -1.5277
  544TIP3    H218205   1.990   1.245   9.424  1.0997  2.3698  0.8391
  545TIP3   OH218206   2.367   3.067   7.750 -0.4490 -0.1775 -0.2783
  545TIP3    H118207   2.398   2.977   7.760 -2.7770 -1.1424 -1.0858
  545TIP3    H218208   2.391   3.091   7.661  0.0728 -0.0473 -0.1016
  546TIP3   OH218209   3.996   2.756   9.397 -0.5212 -0.2750 -0.3399
  546TIP3    H118210   3.964   2.727   9.312 -2.0157  0.9431 -0.2410
  546TIP3    H218211   3.977   2.684   9.456  1.6540 -1.6583 -1.1854
  547TIP3   OH218212   5.595   1.039   0.788  0.1825 -0.5427 -0.2995
  547TIP3    H118213   5.547   1.083   0.859  0.7271 -0.6859  0.1692
  547TIP3    H218214   5.683   1.077   0.791  0.5948 -1.4818 -0.0369
  548TIP3   OH218215   2.587   5.680   0.827  0.4687 -0.2604 -0.0451
  548TIP3    H118216   2.637   5.761   0.817  2.3080 -1.2208  0.8693
  548TIP3    H218217   2.553   5.683   0.917 -1.1142  0.3445 -0.6309
  549TIP3   OH218218   3.733   0.579   7.500  0.4024  0.2276  0.9075
  549TIP3    H118219   3.724   0.615   7.588  0.9252  2.3849  0.1300
  549TIP3    H218220   3.797   0.508   7.509 -0.4583 -0.4059  2.4402
  550TIP3   OH218221   5.001   2.244   8.231  0.0786  0.2762 -0.6638
  550TIP3    H118222   4.982   2.157   8.265  0.8869  0.4454  0.2557
  550TIP3    H218223   5.072   2.230   8.168 -1.9198 -0.1462 -2.9772
  551TIP3   OH218224   1.890   3.430   8.614 -0.3856  0.3067  0.2214
  551TIP3    H118225   1.853   3.384   8.689 -0.0851 -0.4134 -0.0657
  551TIP3    H218226   1.874   3.372   8.540 -0.2432  0.7909 -0.1988
  552TIP3   OH218227   2.197   4.832   8.381  0.1348 -0.1139 -0.0912
  552TIP3    H118228   2.131   4.868   8.323 -1.0075 -2.6938 -0.4993
  552TIP3    H218229   2.164   4.849   8.469 -0.8195 -0.8703 -0.2897
  553TIP3   OH218230   0.667   0.649   8.891 -0.5654 -0.2882 -0.6583
  553TIP3    H118231   0.635   0.688   8.810 -2.4410 -2.4044 -1.0330
  553TIP3    H218232   0.598   0.667   8.955  0.5626  0.7278  0.3326
  554TIP3   OH218233   5.741   0.740   7.075 -0.3740 -0.0403  0.2871
  554TIP3    H118234   5.826   0.701   7.096 -0.6832 -0.5057  0.7176
  554TIP3    H218235   5.762   0.827   7.042  0.2834 -0.2419  0.1504
  555TIP3   OH218236   1.746   2.823   1.391  0.0232  0.3278 -0.5922
  555TIP3    H118237   1.676   2.846   1.331 -0.6591 -2.6074 -1.1094
  555TIP3    H218238   1.736   2.882   1.465 -3.3973 -0.2960 -0.4097
  556TIP3   OH218239   0.279   4.028   8.502 -0.0499  0.3253 -0.4304
  556TIP3    H118240   0.319   4.028   8.416  1.5631 -1.7761  0.2379
  556TIP3    H218241   0.194   3.985   8.489 -0.1286  0.6601 -1.0632
  557TIP3   OH218242   3.583   1.743   7.897 -0.6706 -0.2444 -0.5348
  557TIP3    H118243   3.559   1.736   7.804 -2.0085 -2.3276 -0.0901
  557TIP3    H218244   3.624   1.659   7.918  1.1780  0.8248  0.3962
  558TIP3   OH218245   3.672   5.886   8.874 -0.1617  0.2802  0.2004
  558TIP3    H118246   3.601   5.900   8.811  0.0693 -2.1654 -0.7159
  558TIP3    H218247   3.636   5.824   8.937  0.4985  0.6383  0.9489
  559TIP3   OH218248   5.621   5.839   7.974  0.5122 -0.2872  0.9569
  559TIP3    H118249   5.638   5.770   7.911  0.8618 -0.4529  1.2298
  559TIP3    H218250   5.654   5.805   8.057  1.6066  0.5967  0.9104
  560TIP3   OH218251   5.778   5.690   6.517  0.3495 -0.0488  0.6281
  560TIP3    H118252   5.685   5.712   6.522  0.5342  0.6233  1.6052
  560TIP3    H218253   5.813   5.748   6.450  0.0534 -0.3919  0.1665
  561TIP3   OH218254   0.081   6.152   7.769 -0.3727  0.1022  0.0695
  561TIP3    H118255   0.104   6.090   7.699  2.1218  1.7945 -0.7841
  561TIP3    H218256  -0.014   6.143   7.779 -0.8399 -0.3374 -3.4662
  562TIP3   OH218257   3.231   1.833   2.445  0.3867  0.3430  0.1716
  562TIP3    H118258   3.187   1.902   2.496 -2.3130 -2.4830  2.0410
  562TIP3    H218259   3.288   1.790   2.509  1.9127  0.6690 -0.9280
  563TIP3   OH218260   2.537   3.353   8.448 -0.3779 -0.6782 -0.2660
  563TIP3    H118261   2.468   3.397   8.399 -0.0082  1.3969  0.9532
  563TIP3    H218262   2.615   3.407   8.433  0.7019 -2.2514 -0.5692
  564TIP3   OH218263   0.878   3.497   7.150 -0.0634 -0.2215 -0.2635
  564TIP3    H118264   0.852   3.562   7.215 -0.3318 -0.6456  0.0624
  564TIP3    H218265   0.846   3.532   7.067  0.7132  0.5585 -0.2443
  565TIP3   OH218266   0.451   6.246   9.117 -0.1757  0.1405 -0.3548
  565TIP3    H118267   0.543   6.270   9.129 -0.2257  0.6814 -1.0000
  565TIP3    H218268   0.451   6.150   9.116  0.0820  0.0598  1.8739
  566TIP3   OH218269   5.281   1.193   1.614 -0.2971 -0.7458 -0.1326
  566TIP3    H118270   5.332   1.241   1.549 -1.6733 -0.5686 -1.1237
  566TIP3    H218271   5.190   1.204   1.587 -0.8473 -1.4838  1.2858
  567TIP3   OH218272   4.711   3.403   2.178 -0.2559 -0.1701  0.6086
  567TIP3    H118273   4.712   3.374   2.086  0.2182  2.1701 -0.2104
  567TIP3    H218274   4.625   3.376   2.210 -1.6599  1.4515 -1.4713
  568TIP3   OH218275   4.495   0.997   2.121 -0.3873  0.2107  0.5466
  568TIP3    H118276   4.428   1.037   2.176  0.1344  1.1979  0.4773
  568TIP3    H218277   4.538   1.070   2.078  0.9235 -0.3829  0.7963
  569TIP3   OH218278   5.217   0.627   0.107 -0.5725 -0.4661 -0.0643
  569TIP3    H118279   5.130   0.630   0.147 -1.5572  0.7039 -2.1071
  569TIP3    H218280   5.233   0.535   0.090 -1.5188 -0.6728  0.1158
  570TIP3   OH218281   3.467   3.929   0.066 -0.9921  0.6620 -0.1176
  570TIP3    H118282   3.499   3.950  -0.022  0.2794 -2.3537 -0.4827
  570TIP3    H218283   3.373   3.917   0.054 -0.5732 -1.9530 -1.6950
  571TIP3   OH218284   6.065   0.534   6.636  0.1679  0.4197 -0.0462
  571TIP3    H118285   6.071   0.603   6.571  0.9012  0.2687 -0.1477
  571TIP3    H218286   6.002   0.566   6.701 -1.7230 -0.0469 -1.5688
  572TIP3   OH218287   4.192   6.424   7.316  0.4080  0.4282 -0.4498
  572TIP3    H118288   4.156   6.513   7.314  0.1689  0.3743  0.9316
  572TIP3    H218289   4.126   6.370   7.272 -0.3929  0.6142  0.5082
  573TIP3   OH218290   6.091   3.562   7.326  0.6812 -0.8625 -0.2651
  573TIP3    H118291   6.120   3.607   7.247  0.8718 -1.7731 -0.7224
  573TIP3    H218292   6.157   3.584   7.391  1.4230 -1.4425 -0.8098
  574TIP3   OH218293   0.697   4.822   0.748  0.1924  0.1794  0.7883
  574TIP3    H118294   0.630   4.880   0.783 -1.4399 -1.1563 -0.0102
  574TIP3    H218295   0.719   4.860   0.663 -0.9510 -0.4007  0.2177
  575TIP3   OH218296   0.770   4.094   0.646 -0.0303  0.1725  0.3257
  575TIP3    H118297   0.739   4.078   0.556  0.7997  0.9738 -0.1177
  575TIP3    H218298   0.865   4.103   0.637  0.0461  0.3585  1.2788
  576TIP3   OH218299   3.185   5.069   8.617  0.0424  0.3916 -0.5187
  576TIP3    H118300   3.215   5.113   8.537 -0.1767  0.6558 -0.4580
  576TIP3    H218301   3.112   5.014   8.587  0.2647  0.1317 -0.5816
  577TIP3   OH218302   2.393   0.840   6.007 -0.3239  0.0640 -0.1554
  577TIP3    H118303   2.435   0.821   6.090  0.0385  0.6188 -0.2064
  577TIP3    H218304   2.299   0.828   6.024 -0.1464 -1.6287 -0.1644
  578TIP3   OH218305   0.809   2.319   8.013  0.1452 -0.3479  0.3780
  578TIP3    H118306   0.753   2.362   7.948  1.0180 -0.3590 -0.3968
  578TIP3    H218307   0.868   2.389   8.043  0.8485 -0.7428 -0.0800
  579TIP3   OH218308   3.737   3.683   8.846  0.0386  0.0388  0.5306
  579TIP3    H118309   3.654   3.698   8.892  0.2218  0.9799  0.5701
  579TIP3    H218310   3.755   3.590   8.860  0.1305  0.3023  2.4734
  580TIP3   OH218311   5.505   0.822   8.638 -0.1587  0.2882 -0.4883
  580TIP3    H118312   5.459   0.858   8.562 -2.5097  0.6249  0.9868
  580TIP3    H218313   5.449   0.844   8.713  1.6748 -0.6772  1.2839
  581TIP3   OH218314   0.551   1.953   7.467 -0.3997 -0.1084 -0.8943
  581TIP3    H118315   0.638   1.912   7.474 -0.1779  0.4989  0.1331
  581TIP3    H218316   0.492   1.891   7.510  0.0374  0.8734  1.2729
  582TIP3   OH218317   6.215   3.074   8.455  0.5683  0.8428  0.0822
  582TIP3    H118318   6.210   3.013   8.382 -0.7569  1.0111  0.0050
  582TIP3    H218319   6.125   3.100   8.471  0.9632  1.7313  1.0086
  583TIP3   OH218320   2.855   3.144   7.076  0.3424 -0.2413 -0.2425
  583TIP3    H118321   2.796   3.103   7.012  1.0357  0.9753 -1.6958
  583TIP3    H218322   2.936   3.093   7.070  0.9747  0.8923 -1.5620
  584TIP3   OH218323   5.841   4.997   1.391 -0.4782 -0.0652 -0.0974
  584TIP3    H118324   5.783   5.061   1.349 -0.5357  1.2625  1.8613
  584TIP3    H218325   5.855   5.033   1.479  2.2445 -1.0425 -0.0691
  585TIP3   OH218326   4.621   4.548   8.990  0.5764 -0.0555  0.2454
  585TIP3    H118327   4.569   4.485   8.940  0.1580 -0.8216  1.5852
  585TIP3    H218328   4.668   4.598   8.924  0.1318 -1.0951 -0.8998
  586TIP3   OH218329   1.701   5.004   7.730 -0.8129 -0.3193 -0.3600
  586TIP3    H118330   1.657   4.968   7.806 -1.9504 -0.5435 -1.1016
  586TIP3    H218331   1.630   5.034   7.673 -0.0034 -0.4724 -1.4855
  587TIP3   OH218332   0.605   0.115   9.010  0.0490  0.0181 -0.6330
  587TIP3    H118333   0.608   0.133   8.916  0.5216  0.2223 -0.5822
  587TIP3    H218334   0.520   0.148   9.038 -0.3344 -0.5654 -1.0951
  588TIP3   OH218335   0.918   4.399   1.173 -0.2788 -0.6970  0.2171
  588TIP3    H118336   0.912   4.490   1.203 -0.4333  0.0191 -1.8446
  588TIP3    H218337   0.887   4.347   1.247  0.2538  0.8912  1.6031
  589TIP3   OH218338   6.280   2.776   9.118 -0.8513  0.3461 -0.3771
  589TIP3    H118339   6.291   2.839   9.047  2.2786  0.8110  0.3684
  589TIP3    H218340   6.273   2.691   9.074 -1.0192  0.8179 -1.2781
  590TIP3   OH218341   1.344   0.349   9.182 -0.2302 -0.3684 -0.3002
  590TIP3    H118342   1.374   0.281   9.122  2.8881 -0.6078  1.3133
  590TIP3    H218343   1.330   0.426   9.126  1.9844 -0.7416 -1.4766
  591TIP3   OH218344   4.229   3.869   2.139 -0.3607 -0.2832  0.9475
  591TIP3    H118345   4.254   3.897   2.228 -0.7746  0.6505  0.7846
  591TIP3    H218346   4.135   3.851   2.145 -0.4544  0.0980  0.6230
  592TIP3   OH218347   2.303   0.828   7.318  0.0084 -0.4283 -0.8078
  592TIP3    H118348   2.343   0.758   7.370 -0.1795 -1.0947 -1.5341
  592TIP3    H218349   2.214   0.836   7.354  0.4981  0.4684  0.2468
  593TIP3   OH218350   5.391   3.899   8.686 -0.1492 -0.2800  0.8031
  593TIP3    H118351   5.311   3.853   8.662  0.9321 -1.3599 -0.9767
  593TIP3    H218352   5.366   3.956   8.759 -2.1576 -1.7525  1.3454
  594TIP3   OH218353   3.568   0.150   1.627 -0.1622  0.4555 -0.2187
  594TIP3    H118354   3.606   0.063   1.632  0.6643  0.8559  0.9291
  594TIP3    H218355   3.530   0.155   1.539  1.8637 -0.2173 -1.1818
  595TIP3   OH218356   3.889   0.597   0.600  0.2290 -0.1731 -0.3581
  595TIP3    H118357   3.798   0.571   0.586  0.3998 -0.4652 -0.9384
  595TIP3    H218358   3.883   0.683   0.642 -0.3738 -1.6773  2.9262
  596TIP3   OH218359   6.059   3.151   7.439  0.4922  0.3542  0.2027
  596TIP3    H118360   5.991   3.218   7.446 -0.0577 -0.1843  0.1928
  596TIP3    H218361   6.141   3.199   7.434  0.0547  1.0422 -0.5513
  597TIP3   OH218362   4.412   0.917   0.992  0.0285 -0.0718 -0.2512
  597TIP3    H118363   4.332   0.881   0.954  0.5476  0.7726 -2.2768
  597TIP3    H218364   4.417   1.006   0.958  1.7231 -0.0260  0.0206
  598TIP3   OH218365   4.758   2.095   2.477 -0.6269 -0.8884 -0.3122
  598TIP3    H118366   4.817   2.030   2.437 -0.4414 -1.1673  0.3965
  598TIP3    H218367   4.680   2.045   2.502 -0.1212 -1.0461  1.0527
  599TIP3   OH218368   0.288   2.402   7.441  0.4401 -0.1329  0.2549
  599TIP3    H118369   0.301   2.308   7.428 -0.6563 -0.4240  1.0300
  599TIP3    H218370   0.289   2.414   7.536  0.9782  0.7093  0.1531
  600TIP3   OH218371   0.026   0.166   2.102 -0.3190  0.7330  0.3791
  600TIP3    H118372   0.034   0.098   2.168 -0.0264 -1.4639 -1.7582
  600TIP3    H218373   0.105   0.220   2.111 -1.1030  1.5712  2.8440
  601TIP3   OH218374   0.556   4.991   8.174  0.1240  0.0997  0.0879
  601TIP3    H118375   0.470   4.972   8.211  0.7309 -1.4384  0.7602
  601TIP3    H218376   0.564   4.931   8.100  0.3484  0.7468 -0.4291
  602TIP3   OH218377   3.364   2.689   7.521  0.0496 -0.5721  0.1336
  602TIP3    H118378   3.273   2.673   7.548 -0.4447  1.4389 -0.2305
  602TIP3    H218379   3.356   2.740   7.440  1.5299 -1.3199 -0.5137
  603TIP3   OH218380   4.263   2.088   0.952  0.0011 -0.4857 -0.3036
  603TIP3    H118381   4.249   1.996   0.974 -1.8727 -0.1056  0.2462
  603TIP3    H218382   4.204   2.136   1.010  0.8805  1.0811 -0.6402
  604TIP3   OH218383   4.126   3.255   8.866  0.3394  0.5262 -0.0150
  604TIP3    H118384   4.176   3.234   8.945  2.4604  2.3680 -0.7507
  604TIP3    H218385   4.194   3.270   8.799 -1.3339  0.5364 -1.7945
  605TIP3   OH218386   2.008   2.132   9.045 -0.2306  0.2979  0.2793
  605TIP3    H118387   1.936   2.070   9.047  1.3404 -1.5870  1.2828
  605TIP3    H218388   2.068   2.098   8.979  0.0146  1.5498 -0.1827
  606TIP3   OH218389   3.932   2.549   2.350  0.1966 -0.0818  0.3885
  606TIP3    H118390   3.903   2.579   2.263 -0.4668 -2.2424 -0.2201
  606TIP3    H218391   4.019   2.586   2.361 -0.2529  1.3420 -0.6123
  607TIP3   OH218392   4.593   1.466   6.945  0.3926  0.3516  0.7187
  607TIP3    H118393   4.680   1.495   6.917  0.4037 -0.2314  0.1116
  607TIP3    H218394   4.569   1.525   7.016  2.0959 -0.6674  2.2141
  608TIP3   OH218395   0.063   6.123   2.220 -0.4145 -0.0152  0.4532
  608TIP3    H118396   0.001   6.126   2.293 -1.7524  1.3550 -0.6874
  608TIP3    H218397   0.032   6.189   2.158  1.3330 -0.3394 -0.8675
  609TIP3   OH218398   3.206   0.196   8.488  1.2328 -0.2483 -0.5038
  609TIP3    H118399   3.257   0.116   8.474 -1.1940 -1.7205 -1.4120
  609TIP3    H218400   3.135   0.191   8.424  0.8539  2.5542 -0.4221
  610TIP3   OH218401   5.483   6.233   8.431  0.0072  0.4252  0.4518
  610TIP3    H118402   5.519   6.146   8.450  0.7351  0.7593  0.6519
  610TIP3    H218403   5.390   6.218   8.413 -0.2922 -0.1647  2.3281
  611TIP3   OH218404   4.552   0.624   2.223 -0.2146  0.7048 -0.1179
  611TIP3    H118405   4.528   0.643   2.314  1.6484  1.9354  0.1718
  611TIP3    H218406   4.627   0.566   2.229 -1.6368 -1.3236 -0.9620
  612TIP3   OH218407   3.825   3.601   1.059 -0.4051  0.1863  0.2794
  612TIP3    H118408   3.741   3.594   1.104  0.8606 -1.0964  2.6022
  612TIP3    H218409   3.836   3.695   1.045 -2.0143  0.4128  0.3345
  613TIP3   OH218410   2.957   3.285   7.805 -0.0379 -0.4784 -0.3584
  613TIP3    H118411   3.007   3.204   7.797  0.4684 -0.3259  1.0712
  613TIP3    H218412   2.889   3.278   7.737 -1.2162 -2.9873  0.9334
  614TIP3   OH218413   0.815   2.591   7.900 -0.0586  0.2362 -0.3231
  614TIP3    H118414   0.833   2.611   7.808  0.1059  1.5642 -0.0277
  614TIP3    H218415   0.741   2.648   7.922 -1.4331 -1.5178 -0.1550
  615TIP3   OH218416   0.845   5.047   2.380 -0.5962  0.6663 -0.4533
  615TIP3    H118417   0.836   5.013   2.291 -1.1808  0.0187 -0.1640
  615TIP3    H218418   0.937   5.032   2.403 -0.6641 -0.0441 -0.6121
  616TIP3   OH218419   6.027   4.363   2.446 -0.1955 -0.0696  0.5004
  616TIP3    H118420   6.025   4.267   2.450 -0.3907 -0.0827  0.1379
  616TIP3    H218421   6.116   4.387   2.470  0.2661 -0.4108 -0.8025
  617TIP3   OH218422   2.634   3.560   6.272  0.0866  0.2789 -0.5474
  617TIP3    H118423   2.553   3.556   6.323  0.4384 -0.3648 -0.0290
  617TIP3    H218424   2.606   3.588   6.185 -0.5620  1.0885 -0.0959
  618TIP3   OH218425   3.284   0.390   0.616 -0.2060 -0.0736  0.3172
  618TIP3    H118426   3.212   0.407   0.676 -0.1057 -1.6212  0.9224
  618TIP3    H218427   3.289   0.468   0.561 -1.0763  0.8672  1.5306
  619TIP3   OH218428   0.058   6.214   7.308  0.0014  0.5729  0.2257
  619TIP3    H118429   0.066   6.273   7.233  0.2303  1.3172  0.8225
  619TIP3    H218430  -0.022   6.242   7.352 -0.2647 -0.0236  0.1370
  620TIP3   OH218431   0.461   3.870   9.139  0.0908  0.2710  0.0682
  620TIP3    H118432   0.541   3.922   9.144  1.4803 -1.5033 -1.9933
  620TIP3    H218433   0.475   3.812   9.064 -3.3839  0.2771 -0.7300
  621TIP3   OH218434   5.524   3.465   7.075 -0.3890 -0.7100 -0.0495
  621TIP3    H118435   5.451   3.407   7.055 -0.9099  0.0116 -0.2864
  621TIP3    H218436   5.589   3.409   7.117 -1.3733 -1.2229  0.8324
  622TIP3   OH218437   5.310   2.014   2.697  0.7441  0.4684  0.3448
  622TIP3    H118438   5.378   1.948   2.702 -0.8764 -1.3607 -0.4855
  622TIP3    H218439   5.241   1.982   2.755  0.0366  1.5894  0.1510
  623TIP3   OH218440   3.335   3.377   7.079  0.0186  0.1316 -0.3204
  623TIP3    H118441   3.275   3.352   7.008  0.9424  2.8756 -2.2539
  623TIP3    H218442   3.288   3.444   7.128  0.2432 -0.1575  0.3060
  624TIP3   OH218443   0.202   4.310   0.067 -0.2056  0.0460 -0.4570
  624TIP3    H118444   0.125   4.350   0.026 -0.1713 -0.7111 -1.3073
  624TIP3    H218445   0.216   4.229   0.017  0.1403 -0.6706  0.7632
  625TIP3   OH218446   0.521   3.688   1.142 -0.3133 -0.0015  0.6450
  625TIP3    H118447   0.459   3.750   1.181  0.3025  2.1495 -1.5538
  625TIP3    H218448   0.474   3.651   1.067 -0.1995 -1.2504  1.1593
  626TIP3   OH218449   2.084   0.209   2.043 -0.1133  0.4517  0.4464
  626TIP3    H118450   2.140   0.286   2.051  1.3534 -0.2059 -2.1586
  626TIP3    H218451   2.007   0.240   1.995  1.0381  0.1628 -1.7251
  627TIP3   OH218452   2.024   4.229   8.989  0.5746 -0.2828 -0.5122
  627TIP3    H118453   2.040   4.149   8.939  0.8560 -0.2440 -0.4811
  627TIP3    H218454   2.108   4.250   9.029  0.2378 -0.5737  0.3605
  628TIP3   OH218455   2.678   6.071   8.358 -0.1591  0.4395  0.3819
  628TIP3    H118456   2.632   6.115   8.430 -0.3433  1.7057 -0.4615
  628TIP3    H218457   2.609   6.020   8.314 -0.1521  0.0677  0.7996
  629TIP3   OH218458   1.533   1.230   9.051  0.4835 -0.1779  0.1048
  629TIP3    H118459   1.492   1.162   9.104  1.9343 -0.3732  1.0305
  629TIP3    H218460   1.564   1.294   9.114  0.7341  0.4501 -0.6369
  630TIP3   OH218461   0.856   4.792   2.228  0.4269  0.7111  0.2505
  630TIP3    H118462   0.902   4.786   2.312 -1.0046 -1.0130  0.9665
  630TIP3    H218463   0.895   4.722   2.174 -1.0246 -0.5161  0.7351
  631TIP3   OH218464   5.992   5.141   9.019  0.1426 -0.2898 -0.0627
  631TIP3    H118465   5.900   5.120   9.000  0.5552 -2.4406  0.0069
  631TIP3    H218466   6.015   5.207   8.954 -0.7299 -1.6901 -1.9315
  632TIP3   OH218467   1.013   4.078   7.020 -0.2917 -0.5329 -0.4512
  632TIP3    H118468   0.981   4.158   7.062  2.0642 -0.9371  2.4367
  632TIP3    H218469   1.095   4.103   6.979 -1.4559 -0.6829 -3.0099
  633TIP3   OH218470   4.857   6.385   9.433  0.1695  0.2073  0.0165
  633TIP3    H118471   4.943   6.354   9.405 -0.5669 -1.4647 -0.5325
  633TIP3    H218472   4.836   6.455   9.373  1.5833  1.3848  0.8238
  634TIP3   OH218473   3.620   0.746   0.189 -0.1404  0.0988 -0.0606
  634TIP3    H118474   3.658   0.796   0.117  0.8503  0.0362  0.4038
  634TIP3    H218475   3.663   0.780   0.267  1.3802 -2.1560  0.1886
  635TIP3   OH218476   1.615   1.199   8.375  0.4925  0.2451  0.0360
  635TIP3    H118477   1.659   1.249   8.307  0.1803 -0.7055 -0.9090
  635TIP3    H218478   1.559   1.262   8.420  0.4385  0.8224 -0.8305
  636TIP3   OH218479   1.488   0.618   6.593  0.0800 -0.8728  0.2234
  636TIP3    H118480   1.517   0.536   6.551 -0.7389 -0.8112 -0.5055
  636TIP3    H218481   1.425   0.589   6.659 -1.1369 -0.7835 -0.8585
  637TIP3   OH218482   1.516   0.633   8.422 -0.2779  0.3267  0.4308
  637TIP3    H118483   1.422   0.646   8.428 -0.6629 -1.2599 -1.3096
  637TIP3    H218484   1.552   0.721   8.409 -1.4677  0.9812  1.4051
  638TIP3   OH218485   1.239   3.715   7.426 -0.4120 -0.3460 -0.2068
  638TIP3    H118486   1.145   3.712   7.414 -0.6627  1.7399  0.8029
  638TIP3    H218487   1.252   3.714   7.521  0.4457  1.1326 -0.2738
  639TIP3   OH218488   5.374   3.115   9.026  0.3668  0.4093  0.2618
  639TIP3    H118489   5.301   3.163   9.064  2.0859  2.9207  0.6072
  639TIP3    H218490   5.444   3.120   9.092  2.6586  2.9057 -2.1170
  640TIP3   OH218491   4.465   2.884   1.674  0.6841  0.2665  0.1442
  640TIP3    H118492   4.397   2.851   1.615 -1.1152  0.4571  2.0226
  640TIP3    H218493   4.538   2.824   1.661 -0.2936 -0.7431 -0.9941
  641TIP3   OH218494   0.356   0.231   0.937 -0.3006 -0.0728  0.6175
  641TIP3    H118495   0.438   0.192   0.966 -1.2997 -2.0697  1.0020
  641TIP3    H218496   0.342   0.305   0.996  1.0679  0.1266  0.7238
  642TIP3   OH218497   3.710   3.866   2.000  0.0658 -0.0418  0.3976
  642TIP3    H118498   3.726   3.959   1.984 -2.2988  0.5192  0.8972
  642TIP3    H218499   3.631   3.846   1.949  0.0104 -1.5467  1.0147
  643TIP3   OH218500   6.210   2.514   2.673 -0.1920 -0.0021  0.2233
  643TIP3    H118501   6.212   2.564   2.755  0.5001 -1.5863  1.2319
  643TIP3    H218502   6.148   2.443   2.689  2.5436 -2.4911  0.8146
  644TIP3   OH218503   2.841   3.373   9.281 -0.1275  0.1346 -0.0303
  644TIP3    H118504   2.836   3.305   9.348 -1.8826 -0.6392 -0.8786
  644TIP3    H218505   2.778   3.439   9.309  0.6381  0.8113  0.1271
  645TIP3   OH218506   2.023   1.688   2.527  0.4565  0.6250 -0.3126
  645TIP3    H118507   1.960   1.759   2.541  0.3125  0.6299 -0.9515
  645TIP3    H218508   2.106   1.723   2.559  0.5296  1.3468 -1.2460
  646TIP3   OH218509   6.292   1.011   9.144 -0.0929  0.5981  0.2107
  646TIP3    H118510   6.219   0.952   9.163  0.4839  0.5745  2.7633
  646TIP3    H218511   6.367   0.970   9.185  1.4734  0.5438 -2.5044
  647TIP3   OH218512   5.910   3.161   7.722 -0.3734 -0.3207  0.4760
  647TIP3    H118513   5.960   3.143   7.643 -0.5775 -1.6128  0.6186
  647TIP3    H218514   5.961   3.228   7.768 -0.5962  0.9542 -1.0467
  648TIP3   OH218515   4.272   2.067   1.952 -0.8337 -0.3167 -0.1848
  648TIP3    H118516   4.342   2.008   1.924 -0.6864  0.0793 -0.6530
  648TIP3    H218517   4.203   2.056   1.887 -1.2251 -0.7198  0.2856
  649TIP3   OH218518   2.465   3.782   1.744 -0.0210 -0.1051 -0.3599
  649TIP3    H118519   2.402   3.824   1.685  0.4423 -0.6691 -1.2723
  649TIP3    H218520   2.410   3.732   1.805 -0.4999  0.3948 -0.3697
  650TIP3   OH218521   4.271   6.294   0.307 -0.1795 -0.4150 -0.2510
  650TIP3    H118522   4.217   6.367   0.276  1.4250  1.0163  0.1529
  650TIP3    H218523   4.214   6.218   0.301 -0.5530 -0.0599 -5.2370
  651TIP3   OH218524   1.881   5.829   0.303 -0.0393 -0.3357 -0.4589
  651TIP3    H118525   1.975   5.834   0.320 -0.0238  2.4975 -0.9316
  651TIP3    H218526   1.875   5.791   0.215  0.7183  0.2099 -0.7626
  652TIP3   OH218527   4.616   0.547   8.098 -0.1323  1.1164  0.0870
  652TIP3    H118528   4.601   0.452   8.099  0.2099  1.0418 -1.0048
  652TIP3    H218529   4.701   0.558   8.140 -0.0237  0.9023 -0.0710
  653TIP3   OH218530   2.360   5.220   8.011 -0.6416  0.3575  0.0074
  653TIP3    H118531   2.436   5.183   8.054 -0.5660 -1.5357 -1.5811
  653TIP3    H218532   2.372   5.314   8.016  1.7738  0.1141 -0.1127
  654TIP3   OH218533   4.251   3.214   8.211 -0.3501 -0.9838  0.0653
  654TIP3    H118534   4.269   3.132   8.164 -1.5059 -2.3271  1.8167
  654TIP3    H218535   4.221   3.274   8.143  1.6823 -1.5846 -1.4593
  655TIP3   OH218536   3.128   2.073   6.925  0.5434 -0.9262 -0.4389
  655TIP3    H118537   3.140   2.025   6.843  0.7784 -0.3611 -0.7404
  655TIP3    H218538   3.212   2.117   6.940  0.2266 -0.3350 -0.3483
  656TIP3   OH218539   2.309   4.589   8.275 -0.1818  0.5528 -0.3073
  656TIP3    H118540   2.236   4.537   8.242  0.1937 -0.3745  0.2578
  656TIP3    H218541   2.270   4.673   8.300 -0.5302  1.1686 -2.6964
  657TIP3   OH218542   3.958   4.952   7.199 -0.4652  0.6388  0.3154
  657TIP3    H118543   3.904   4.930   7.123  0.0855 -0.0034  0.1006
  657TIP3    H218544   4.001   5.034   7.175 -0.8078  0.7874  0.2045
  658TIP3   OH218545   5.598   0.034   0.107 -0.0083  0.2673  0.4111
  658TIP3    H118546   5.693   0.036   0.115 -0.0339  0.5556  0.6509
  658TIP3    H218547   5.577   0.106   0.047  0.0892 -1.1408 -1.3727
  659TIP3   OH218548   5.662   0.828   9.129 -0.2087 -0.1831 -0.0696
  659TIP3    H118549   5.609   0.906   9.146 -1.1859  0.0823 -3.6692
  659TIP3    H218550   5.744   0.862   9.094  0.1855 -0.7330  0.3085
  660TIP3   OH218551   5.648   0.755   0.891  0.1424 -0.4862 -0.1627
  660TIP3    H118552   5.697   0.834   0.911  0.4823 -0.7598  0.1127
  660TIP3    H218553   5.564   0.786   0.858  0.6796 -0.0049 -1.1291
  661TIP3   OH218554   4.720   1.598   0.181 -0.7241 -0.2519  0.0403
  661TIP3    H118555   4.683   1.514   0.153  1.2681 -1.6213  1.2764
  661TIP3    H218556   4.800   1.607   0.129 -0.5352  0.4997  0.4576
  662TIP3   OH218557   4.730   6.220   9.191  0.8087  0.2345  0.2958
  662TIP3    H118558   4.781   6.194   9.268  1.2380  0.7973  0.2110
  662TIP3    H218559   4.724   6.315   9.197 -0.5692  0.1505  0.4994
  663TIP3   OH218560   4.066   3.011   8.318  0.1453  0.0171  0.5088
  663TIP3    H118561   4.118   3.028   8.396  1.1061 -0.2998 -0.0353
  663TIP3    H218562   4.108   3.063   8.250  1.2205 -1.9667 -0.4656
  664TIP3   OH218563   1.314   4.403   7.369 -0.0996  0.1927  0.0902
  664TIP3    H118564   1.312   4.456   7.290 -0.1258  0.8066  0.4942
  664TIP3    H218565   1.317   4.313   7.338  0.9903  0.4593 -0.6050
  665TIP3   OH218566   3.695   2.227   1.403  0.2517  0.4677  0.2887
  665TIP3    H118567   3.657   2.140   1.392  0.2359  0.6543 -1.5213
  665TIP3    H218568   3.789   2.211   1.411  0.0914  0.1895  1.9228
  666TIP3   OH218569   1.526   5.753   9.095  0.0380  0.0627 -0.1348
  666TIP3    H118570   1.556   5.662   9.087 -0.2964 -0.0481 -0.1667
  666TIP3    H218571   1.540   5.790   9.008 -0.6811 -0.2285 -0.3788
  667TIP3   OH218572   6.311   6.284   7.497 -0.1767  0.3766  0.6864
  667TIP3    H118573   6.254   6.207   7.504  1.3484 -0.8656  0.0401
  667TIP3    H218574   6.267   6.341   7.433 -1.1017 -0.1655  0.8255
  668TIP3   OH218575   5.224   3.362   1.597 -0.1208  0.2904 -0.0046
  668TIP3    H118576   5.157   3.293   1.599  2.2138 -2.1282  0.6897
  668TIP3    H218577   5.237   3.379   1.503  0.0041 -1.0385 -0.2526
  669TIP3   OH218578   4.593   4.756   8.530  0.5518  0.2058 -0.0335
  669TIP3    H118579   4.512   4.710   8.509  0.6939 -0.5297  0.9701
  669TIP3    H218580   4.659   4.688   8.537  0.9495  0.6361  0.5879
  670TIP3   OH218581   1.503   1.677   8.765  0.2734 -0.3022 -0.2582
  670TIP3    H118582   1.528   1.683   8.858  2.5056  0.3696 -0.8220
  670TIP3    H218583   1.429   1.737   8.757  1.3802  1.3117  0.7374
  671TIP3   OH218584   4.740   0.189   8.466 -0.0161 -0.3482 -0.1862
  671TIP3    H118585   4.668   0.250   8.480  0.2955  0.3262 -1.3781
  671TIP3    H218586   4.766   0.161   8.554 -2.9423 -2.1116  0.2230
  672TIP3   OH218587   4.064   3.507   7.479 -1.1118 -0.0707  0.0186
  672TIP3    H118588   3.977   3.531   7.449 -0.9202  0.1594 -0.3592
  672TIP3    H218589   4.049   3.448   7.553 -1.5839  1.0426  0.8318
  673TIP3   OH218590   1.603   4.063   6.913  0.2391 -0.5264 -0.1307
  673TIP3    H118591   1.567   4.132   6.857  1.2507 -0.0916 -0.2658
  673TIP3    H218592   1.577   3.982   6.871  0.4508 -0.2058 -0.8897
  674TIP3   OH218593   3.506   2.073   7.219  0.5553 -0.1619 -0.3073
  674TIP3    H118594   3.413   2.076   7.241  0.4138  0.7755 -0.9584
  674TIP3    H218595   3.549   2.046   7.300  0.0414  2.8659  1.1203
  675TIP3   OH218596   1.180   1.667   1.086 -0.0228 -0.3370  0.1680
  675TIP3    H118597   1.242   1.695   1.019  1.1185  1.5863  1.9190
  675TIP3    H218598   1.101   1.643   1.037  1.2644 -0.5261 -1.9452
  676TIP3   OH218599   4.167   3.769   6.976  0.0520  0.1043 -0.3502
  676TIP3    H118600   4.151   3.820   7.055 -0.4789 -2.8026  1.5732
  676TIP3    H218601   4.198   3.833   6.912 -1.9904  3.0497  1.3566
  677TIP3   OH218602   2.664   1.359   2.088  0.5729  0.1879  0.3641
  677TIP3    H118603   2.672   1.286   2.149  3.3080 -0.4741 -0.6573
  677TIP3    H218604   2.710   1.431   2.130  1.2731  0.1368 -0.2937
  678TIP3   OH218605   5.168   5.525   1.195 -0.2976  0.5060 -0.2512
  678TIP3    H118606   5.210   5.440   1.211  1.7463  1.6934  1.3073
  678TIP3    H218607   5.234   5.576   1.148 -0.9402  1.6530  0.0431
  679TIP3   OH218608   2.056   4.892   8.950 -0.3218 -0.5000 -0.4416
  679TIP3    H118609   1.995   4.949   8.902 -0.4627  0.1424  0.4698
  679TIP3    H218610   2.008   4.868   9.030  1.0235  1.0582  0.9182
  680TIP3   OH218611   0.099   3.936   0.794  0.0733 -0.9530 -0.2608
  680TIP3    H118612   0.077   4.027   0.776 -0.6963 -1.1967 -0.6052
  680TIP3    H218613   0.186   3.939   0.834 -1.2186  0.1861  2.6549
  681TIP3   OH218614   4.898   3.414   2.573  0.2477 -0.3173  0.0710
  681TIP3    H118615   4.906   3.334   2.624  1.7795  0.4687  1.1350
  681TIP3    H218616   4.945   3.480   2.623  0.0535  0.9821 -1.3632
  682TIP3   OH218617   4.217   0.729   0.881  0.1163  0.2887 -0.1971
  682TIP3    H118618   4.189   0.640   0.860  0.0178  0.7090 -2.1020
  682TIP3    H218619   4.136   0.775   0.903  0.0890  0.0558  0.1931
  683TIP3   OH218620   0.330   2.442   1.216 -1.2334  0.5161  0.0028
  683TIP3    H118621   0.362   2.459   1.128  0.4340  1.5643  0.7568
  683TIP3    H218622   0.313   2.347   1.218  0.1169  0.2151 -1.0276
  684TIP3   OH218623   2.732   0.892   0.377 -0.0416 -0.2128 -0.5273
  684TIP3    H118624   2.777   0.812   0.350 -0.2820 -0.6814  0.4026
  684TIP3    H218625   2.763   0.908   0.466 -1.7951 -0.6481  0.2122
  685TIP3   OH218626   3.188   2.614   8.289 -0.1504  0.5169 -0.0567
  685TIP3    H118627   3.133   2.686   8.319  0.1443 -0.3803  2.8596
  685TIP3    H218628   3.278   2.648   8.293 -0.1594  0.7106 -1.0431
  686TIP3   OH218629   1.797   3.190   7.389 -0.2102  0.0302 -0.3718
  686TIP3    H118630   1.709   3.158   7.411 -0.3840 -1.0609 -2.4389
  686TIP3    H218631   1.854   3.153   7.456 -1.2582  0.4591  0.7905
  687TIP3   OH218632   3.730   5.367   2.165 -0.5933  0.5322 -0.2128
  687TIP3    H118633   3.805   5.309   2.177 -0.7616 -0.1906 -2.2218
  687TIP3    H218634   3.697   5.382   2.253  1.0930 -0.2078  0.6035
  688TIP3   OH218635   5.371   2.181   1.949  0.1158  0.1644  0.2805
  688TIP3    H118636   5.305   2.239   1.910 -0.5684 -1.4292 -1.0401
  688TIP3    H218637   5.397   2.226   2.029 -4.6729 -0.3504  2.4821
  689TIP3   OH218638   3.715   6.310   2.313  0.1028 -0.2133 -0.5206
  689TIP3    H118639   3.763   6.388   2.339 -0.6114  0.4006 -0.9932
  689TIP3    H218640   3.773   6.265   2.251  0.6967 -0.2934  0.0863
  690TIP3   OH218641   2.768   2.087   3.124  0.9295  0.2544  0.1285
  690TIP3    H118642   2.820   2.059   3.048  0.8841  0.7381 -0.0852
  690TIP3    H218643   2.798   2.031   3.196  0.3660 -0.7927 -0.4396
  691TIP3   OH218644   4.189   6.465   2.622  0.6033  0.3620  0.1537
  691TIP3    H118645   4.105   6.437   2.586  1.4211 -1.9538 -0.1033
  691TIP3    H218646   4.193   6.426   2.709  1.6050 -0.0196 -0.0393
  692TIP3   OH218647   1.157   5.488   2.207 -0.4372  0.3918  0.2136
  692TIP3    H118648   1.132   5.463   2.296 -2.8157  0.8599 -0.2638
  692TIP3    H218649   1.160   5.405   2.159  3.1973 -0.1740  1.1491
  693TIP3   OH218650   1.188   3.000   6.549  0.1339  0.0341 -0.1998
  693TIP3    H118651   1.263   3.058   6.537 -0.1146  0.4021  0.0213
  693TIP3    H218652   1.175   2.997   6.644 -0.3332  0.2241 -0.2574
  694TIP3   OH218653   3.011   6.328   1.072  0.1247 -0.4732 -0.0830
  694TIP3    H118654   2.989   6.413   1.111  1.7743  0.3668 -0.8583
  694TIP3    H218655   3.030   6.272   1.147  0.4356  0.2866  0.4228
  695TIP3   OH218656   2.515   5.797   9.194  0.2929  0.4073  0.2010
  695TIP3    H118657   2.605   5.817   9.170 -0.5071  3.2599 -0.7861
  695TIP3    H218658   2.465   5.874   9.166 -2.3976 -0.9065  1.0800
  696TIP3   OH218659   5.334   4.146   3.119  0.0455 -0.6111 -0.0623
  696TIP3    H118660   5.375   4.075   3.069 -0.3887 -0.8730 -0.0570
  696TIP3    H218661   5.349   4.123   3.211  1.7712  0.4187 -0.0519
  697TIP3   OH218662   5.603   2.040   7.307  0.4674  0.1330 -0.5106
  697TIP3    H118663   5.608   2.044   7.403  0.2764  0.3778 -0.5107
  697TIP3    H218664   5.574   2.127   7.281 -2.5766 -0.7738 -0.5832
  698TIP3   OH218665   4.373   0.778   1.791 -0.1160  0.2846  0.0602
  698TIP3    H118666   4.369   0.870   1.818  0.6428  0.3322  0.0383
  698TIP3    H218667   4.458   0.770   1.748 -0.2108 -0.4141 -0.0057
  699TIP3   OH218668   3.134   0.521   0.801 -0.3565  0.0807  0.6721
  699TIP3    H118669   3.154   0.456   0.869 -1.2767 -2.2215 -1.1335
  699TIP3    H218670   3.041   0.510   0.784 -0.4314  1.5692 -0.0327
  700TIP3   OH218671   4.544   6.180   7.714  0.4038 -0.1999 -0.1166
  700TIP3    H118672   4.621   6.212   7.667  0.5052  0.1392  0.2718
  700TIP3    H218673   4.484   6.150   7.645 -0.4721  2.5022 -0.6629
  701TIP3   OH218674   4.835   2.411   0.958 -0.0829 -0.1036  0.5898
  701TIP3    H118675   4.901   2.366   0.905  2.5525  1.8875  1.9471
  701TIP3    H218676   4.803   2.344   1.018  0.0510 -1.3301 -0.6478
  702TIP3   OH218677   0.362   6.398   8.606  0.3215  0.1214  0.3074
  702TIP3    H118678   0.330   6.333   8.543 -0.8252  0.1557  0.8311
  702TIP3    H218679   0.410   6.348   8.671  1.9009  0.1274 -0.7914
  703TIP3   OH218680   0.287   2.583   8.278  0.1084  0.0550 -0.0645
  703TIP3    H118681   0.200   2.603   8.312 -0.6450 -1.6586 -0.8675
  703TIP3    H218682   0.295   2.636   8.198 -0.1683  0.2492  0.0348
  704TIP3   OH218683   0.523   2.168   2.189  0.1183  0.2029 -0.3363
  704TIP3    H118684   0.448   2.149   2.245 -0.2150  1.9838 -0.0957
  704TIP3    H218685   0.512   2.260   2.165  1.6336  0.1924 -1.2181
  705TIP3   OH218686   0.319   2.655   0.488  0.0693 -0.2094 -0.0554
  705TIP3    H118687   0.244   2.606   0.524  1.0785 -3.2550 -1.7757
  705TIP3    H218688   0.304   2.655   0.394  2.3139 -1.0927 -0.4610
  706TIP3   OH218689   6.261   4.749   8.837 -0.0718 -0.3507 -0.4294
  706TIP3    H118690   6.258   4.811   8.909 -0.7947 -1.0056  0.1261
  706TIP3    H218691   6.175   4.705   8.839  0.7056 -1.9427 -0.2763
  707TIP3   OH218692   3.219   3.157   8.685 -0.5558  0.5377  0.2679
  707TIP3    H118693   3.137   3.113   8.664 -1.3917  0.8749  2.5215
  707TIP3    H218694   3.192   3.238   8.729  0.9581  2.7734 -2.5348
  708TIP3   OH218695   5.003   3.260   0.973 -0.7496 -0.0516  0.0813
  708TIP3    H118696   5.039   3.253   0.885  0.5343 -0.0420  0.5820
  708TIP3    H218697   4.955   3.343   0.973  1.0615  1.0483 -0.0027
  709TIP3   OH218698   2.337   1.072   0.545  0.1093  1.0099 -0.1084
  709TIP3    H118699   2.255   1.117   0.564  0.0135  0.9109 -0.2943
  709TIP3    H218700   2.381   1.128   0.481 -1.1897 -0.4641 -2.3940
  710TIP3   OH218701   2.718   5.191   2.160 -0.1603 -0.1924 -0.0021
  710TIP3    H118702   2.651   5.174   2.226  0.0405 -1.6018 -0.1162
  710TIP3    H218703   2.684   5.149   2.080 -0.3322  1.3561 -0.7777
  711TIP3   OH218704   1.509   5.459   0.113  0.3331 -0.3424 -0.0994
  711TIP3    H118705   1.480   5.392   0.051 -2.1445 -2.3311  2.8913
  711TIP3    H218706   1.450   5.533   0.098 -0.4999 -0.9574  0.0442
  712TIP3   OH218707   1.171   1.955   6.455  0.2214 -0.3472  0.3259
  712TIP3    H118708   1.172   1.932   6.362 -2.3732  0.0187  0.1357
  712TIP3    H218709   1.122   1.885   6.497  1.6658 -0.6866  1.5206
  713TIP3   OH218710   3.171   1.626   1.560  0.4600 -0.1854 -0.1199
  713TIP3    H118711   3.213   1.541   1.544  1.7861  0.5569 -0.8581
  713TIP3    H218712   3.175   1.638   1.655 -1.8200 -1.9208  0.2602
  714TIP3   OH218713   5.258   3.814   8.271 -0.7197  0.0097 -0.0846
  714TIP3    H118714   5.177   3.772   8.242 -0.9436 -0.9326  1.7671
  714TIP3    H218715   5.234   3.905   8.287 -1.4829 -0.3265  0.7141
  715TIP3   OH218716   6.037   4.028   0.407  0.0454 -0.4563 -0.5350
  715TIP3    H118717   6.110   4.019   0.468 -1.2314 -3.5600  0.7259
  715TIP3    H218718   5.972   4.080   0.455  0.9115  1.3808 -1.2531
  716TIP3   OH218719   1.565   0.422   0.982 -0.1789  0.1670 -0.6023
  716TIP3    H118720   1.530   0.335   0.961 -0.1119 -0.3543  1.2682
  716TIP3    H218721   1.499   0.461   1.039  0.4484  0.7603 -0.2727
  717TIP3   OH218722   1.309   3.316   1.775 -0.3853 -0.6934  0.8276
  717TIP3    H118723   1.311   3.411   1.785  0.4270 -0.5577 -0.4712
  717TIP3    H218724   1.224   3.297   1.736 -0.3356 -0.4480  0.6028
  718TIP3   OH218725   3.110   4.614   0.776 -0.1469  0.0716 -0.1237
  718TIP3    H118726   3.050   4.658   0.836 -0.6495 -0.2823 -0.3575
  718TIP3    H218727   3.193   4.612   0.822 -0.2491  0.7836  0.1077
  719TIP3   OH218728   4.364   4.372   7.224  0.4434 -0.0088  0.3015
  719TIP3    H118729   4.307   4.296   7.235 -0.7109  0.9970  1.6676
  719TIP3    H218730   4.321   4.424   7.156  1.0310 -0.3834 -0.3655
  720TIP3   OH218731   2.593   4.848   8.951  1.1520  0.5766 -0.4002
  720TIP3    H118732   2.680   4.880   8.973  1.1944 -0.3369  0.8809
  720TIP3    H218733   2.608   4.761   8.914  0.8042  0.5646 -0.5172
  721TIP3   OH218734   0.717   3.895   1.751  0.1442  0.2436  0.1810
  721TIP3    H118735   0.680   3.844   1.679 -0.5829 -1.0708  1.4447
  721TIP3    H218736   0.642   3.944   1.786  0.8029  2.1501 -0.9294
  722TIP3   OH218737   2.711   5.343   9.099  0.0538  0.2468 -0.2474
  722TIP3    H118738   2.669   5.422   9.066 -0.6078 -0.4919 -1.2166
  722TIP3    H218739   2.670   5.271   9.051  0.5277 -0.7112  0.7259
  723TIP3   OH218740   2.724   3.264   7.973  0.0614 -0.2275  0.8720
  723TIP3    H118741   2.680   3.182   7.953  0.5421 -0.1401 -0.6367
  723TIP3    H218742   2.800   3.266   7.915 -1.4526  2.5556 -1.2498
  724TIP3   OH218743   4.917   4.122   1.099  0.1341  0.2847 -0.3387
  724TIP3    H118744   4.901   4.133   1.192 -2.1042  0.8863 -0.7387
  724TIP3    H218745   4.939   4.210   1.068  3.4890 -0.3255 -0.0148
  725TIP3   OH218746   1.496   5.341   7.783  0.2804  0.3600  0.0135
  725TIP3    H118747   1.474   5.284   7.710 -0.4540  1.1963 -0.4468
  725TIP3    H218748   1.411   5.365   7.821  0.2292  3.5730 -1.7307
  726TIP3   OH218749   0.881   3.307   0.076  0.3659 -0.6486  0.5268
  726TIP3    H118750   0.879   3.211   0.081  0.2582 -0.6425  0.5850
  726TIP3    H218751   0.971   3.327   0.052  0.3775 -0.7676  0.4682
  727TIP3   OH218752   1.251   0.281   8.259  0.3862 -0.1993  0.1481
  727TIP3    H118753   1.339   0.282   8.296  0.8876 -1.4123 -0.9294
  727TIP3    H218754   1.193   0.294   8.334  1.4712  0.6947  0.8646
  728TIP3   OH218755   1.276   0.844   1.358 -0.6607  0.1252 -0.2263
  728TIP3    H118756   1.271   0.904   1.432 -0.6241  0.0037 -0.1253
  728TIP3    H218757   1.315   0.764   1.394 -1.0004 -0.0701 -0.2862
  729TIP3   OH218758   0.921   6.094   0.491 -0.1869 -0.2199 -0.3188
  729TIP3    H118759   0.827   6.107   0.501 -0.1648  0.1312 -0.5152
  729TIP3    H218760   0.953   6.178   0.456 -0.0020 -0.7703 -1.5380
  730TIP3   OH218761   5.640   1.127   8.585  0.1402 -0.0322 -0.2162
  730TIP3    H118762   5.638   1.038   8.621 -1.8425 -0.4944 -1.3478
  730TIP3    H218763   5.731   1.139   8.557  0.8288 -1.0591  1.4345
  731TIP3   OH218764   3.224   6.270   8.528  0.2657 -0.2908  0.0248
  731TIP3    H118765   3.280   6.285   8.604 -1.6677 -2.3671  2.0115
  731TIP3    H218766   3.135   6.286   8.561 -0.4968  1.9588 -2.7375
  732TIP3   OH218767   2.214   5.419   7.505 -0.3475 -0.0413 -0.5731
  732TIP3    H118768   2.281   5.487   7.510  0.3508 -0.8082  1.1733
  732TIP3    H218769   2.142   5.452   7.557 -0.3899 -0.2225 -0.5153
  733TIP3   OH218770   0.807   6.231   8.764  0.5627 -0.5452  0.0736
  733TIP3    H118771   0.823   6.190   8.850  1.1276 -1.2898 -0.3715
  733TIP3    H218772   0.859   6.178   8.703  0.6325  0.3356 -0.6444
  734TIP3   OH218773   0.412   6.418   1.743 -0.2597 -0.1758  0.4709
  734TIP3    H118774   0.486   6.455   1.791  0.3178  0.9675 -1.2262
  734TIP3    H218775   0.446   6.399   1.656 -1.9270  0.3241 -0.3444
  735TIP3   OH218776   0.014   2.586   2.526 -0.1831 -0.1096  0.3489
  735TIP3    H118777   0.053   2.633   2.600  1.5909 -0.2005 -0.4604
  735TIP3    H218778  -0.063   2.543   2.562  0.9572 -0.6438  2.2998
  736TIP3   OH218779   1.218   5.089   7.388 -0.1903 -0.8707  0.3156
  736TIP3    H118780   1.305   5.127   7.383 -0.6835  0.2121 -0.3239
  736TIP3    H218781   1.182   5.121   7.471 -0.2970 -0.6242  0.1736
  737TIP3   OH218782   6.199   0.693   7.344 -0.0515 -0.6088  0.5194
  737TIP3    H118783   6.164   0.782   7.341  0.7271 -0.2682  0.9996
  737TIP3    H218784   6.290   0.702   7.315 -0.1869 -1.3743 -0.1779
  738TIP3   OH218785   4.109   5.116   3.110  0.0005 -0.2116 -1.0977
  738TIP3    H118786   4.024   5.122   3.153  1.1165 -2.1863  1.7010
  738TIP3    H218787   4.104   5.037   3.057  0.5197 -1.2619  0.3512
  739TIP3   OH218788   3.007   6.400   2.254  0.6766 -0.4046 -0.4457
  739TIP3    H118789   2.927   6.451   2.249  0.1136 -1.3479 -1.4902
  739TIP3    H218790   3.056   6.439   2.327 -0.7396  0.1564  0.2374
  740TIP3   OH218791   1.481   4.241   7.738 -0.4766 -0.0190  0.2687
  740TIP3    H118792   1.507   4.272   7.651 -0.9228 -0.4822 -0.0302
  740TIP3    H218793   1.387   4.226   7.732 -0.2466 -1.7016  0.3108
  741TIP3   OH218794   0.286   3.490   8.310 -0.4354 -0.0536  0.1385
  741TIP3    H118795   0.313   3.494   8.402 -0.2228 -1.0851  0.1348
  741TIP3    H218796   0.343   3.552   8.265 -2.2311  2.4245  1.0644
  742TIP3   OH218797   4.667   2.123   0.964  0.0228 -0.5832  0.1698
  742TIP3    H118798   4.595   2.182   0.988  1.2552  0.9186  0.3556
  742TIP3    H218799   4.647   2.041   1.010 -0.6676  0.3663  1.6559
  743TIP3   OH218800   2.710   5.537   0.120  0.7549  0.4909 -0.2678
  743TIP3    H118801   2.636   5.479   0.137 -0.0539  0.9262 -2.0568
  743TIP3    H218802   2.769   5.484   0.067  0.7254  0.8202 -0.6294
  744TIP3   OH218803   4.358   1.919   6.617  0.1502 -0.5328 -0.3889
  744TIP3    H118804   4.411   1.980   6.566  2.3397 -0.5709  1.6791
  744TIP3    H218805   4.366   1.949   6.707 -0.9409 -2.3175  0.3662
  745TIP3   OH218806   3.786   3.057   1.220  0.1685 -0.3553 -0.1504
  745TIP3    H118807   3.751   3.102   1.297  1.7077  0.1739  0.2754
  745TIP3    H218808   3.721   3.074   1.151  0.2752  1.8150  0.2242
  746TIP3   OH218809   4.526   3.722   0.412  0.5279  1.4477  0.0359
  746TIP3    H118810   4.500   3.780   0.340  1.9553  0.8650 -1.0029
  746TIP3    H218811   4.577   3.778   0.471 -1.4007  2.1468  1.1299
  747TIP3   OH218812   0.408   2.268   8.574 -0.3919 -0.3908  0.5674
  747TIP3    H118813   0.393   2.273   8.479  0.1155  1.0368  0.5314
  747TIP3    H218814   0.351   2.198   8.604  0.0360 -1.4153 -0.9096
  748TIP3   OH218815   3.603   2.312   1.885  0.0814  0.2424  0.1695
  748TIP3    H118816   3.580   2.362   1.807 -1.4838 -0.5068  0.1126
  748TIP3    H218817   3.686   2.270   1.863  0.4487  1.2773 -0.4849
  749TIP3   OH218818   5.521   4.242   0.872 -0.0696 -0.3340 -0.4392
  749TIP3    H118819   5.607   4.224   0.909 -0.6171 -0.8119  0.6521
  749TIP3    H218820   5.539   4.286   0.790  1.2602 -1.8682 -1.0263
  750TIP3   OH218821   2.758   2.188   0.512  0.0214 -0.4626  0.2712
  750TIP3    H118822   2.679   2.196   0.459 -0.7047  1.7639  1.5408
  750TIP3    H218823   2.827   2.227   0.458 -0.0663 -1.0135 -0.2409
  751TIP3   OH218824   2.445   1.438   7.537  0.0733  0.9473  0.0838
  751TIP3    H118825   2.453   1.482   7.621 -0.1177 -0.3343  0.7941
  751TIP3    H218826   2.350   1.430   7.524  0.0140  3.1895 -1.3889
  752TIP3   OH218827   4.647   2.794   2.085 -0.6062  0.2786  0.4402
  752TIP3    H118828   4.711   2.806   2.014 -0.6625 -0.8275  0.1870
  752TIP3    H218829   4.627   2.701   2.083 -0.5135  0.2028  2.0017
  753TIP3   OH218830   5.897   1.744   7.587  0.3705  0.2076 -0.2566
  753TIP3    H118831   5.861   1.707   7.506  0.0340 -1.8824  0.7856
  753TIP3    H218832   5.908   1.837   7.568 -0.5907 -0.0565 -2.3799
  754TIP3   OH218833   4.688   3.629   1.965 -0.0515  0.1305 -0.0745
  754TIP3    H118834   4.618   3.563   1.959 -0.9905  1.1737 -1.2293
  754TIP3    H218835   4.744   3.611   1.890 -1.5512  1.9237 -1.7500
  755TIP3   OH218836   6.207   1.029   8.588  0.5170 -0.0834 -0.4945
  755TIP3    H118837   6.302   1.018   8.585  0.3734 -1.3460 -1.8249
  755TIP3    H218838   6.178   1.002   8.501 -0.9116  1.9315 -0.6861
  756TIP3   OH218839   0.266   6.316   8.134  0.1633 -0.2826  0.5672
  756TIP3    H118840   0.177   6.286   8.117  0.2518 -0.2791  0.0778
  756TIP3    H218841   0.270   6.403   8.094 -0.0865  0.3962  1.9608
  757TIP3   OH218842   2.888   3.974   1.061 -0.3914 -0.1955  0.9382
  757TIP3    H118843   2.936   3.952   0.981  1.5015  0.8767  1.7268
  757TIP3    H218844   2.879   3.891   1.107  0.8573 -0.4117  0.8317
  758TIP3   OH218845   3.767   2.537   7.922  1.2062  0.1822 -0.5895
  758TIP3    H118846   3.759   2.583   8.006 -0.2623  0.4217 -0.8468
  758TIP3    H218847   3.735   2.449   7.939 -0.6608  0.6812 -1.2376
  759TIP3   OH218848   1.939   2.432   8.162 -0.0991 -0.5273 -0.2325
  759TIP3    H118849   1.913   2.522   8.143 -2.3197 -1.3116 -1.2752
  759TIP3    H218850   1.892   2.409   8.243  2.4330 -0.0179  1.4845
  760TIP3   OH218851   2.694   2.538   1.325 -0.0565 -0.0433  0.1739
  760TIP3    H118852   2.660   2.460   1.369  0.0475 -0.6678 -0.8160
  760TIP3    H218853   2.781   2.512   1.294  0.1243  0.5841  0.1386
  761TIP3   OH218854   6.351   3.911   1.912 -0.3369  0.1696 -0.3313
  761TIP3    H118855   6.331   3.978   1.846  1.6949  1.9385  0.7045
  761TIP3    H218856   6.375   3.961   1.990  3.2612 -1.6453 -0.0827
  762TIP3   OH218857   2.761   4.947   7.843  0.2935  0.4284 -0.3334
  762TIP3    H118858   2.841   4.896   7.831  0.3352  0.2640  0.5421
  762TIP3    H218859   2.787   5.019   7.901 -0.2098  0.3182  0.0350
  763TIP3   OH218860   3.257   0.978   2.079 -0.1279 -1.0654 -0.0438
  763TIP3    H118861   3.172   0.947   2.109 -0.7463  0.3467 -0.2434
  763TIP3    H218862   3.308   0.992   2.159 -1.1223  0.8828  0.3036
  764TIP3   OH218863   5.865   1.201   8.075 -0.2044  0.0914  0.2957
  764TIP3    H118864   5.923   1.235   8.143  0.6592  2.0252 -1.2898
  764TIP3    H218865   5.924   1.176   8.004 -1.1823 -0.4512 -0.3506
  765TIP3   OH218866   4.547   4.397   2.173  0.4850 -0.5750  0.0529
  765TIP3    H118867   4.637   4.413   2.145  0.1586  1.3004 -0.0992
  765TIP3    H218868   4.525   4.473   2.227 -0.3250 -2.0335  1.8875
  766TIP3   OH218869   3.043   4.481   0.064 -0.3575 -0.8058 -0.1212
  766TIP3    H118870   2.991   4.488   0.144  1.0814  2.2962  0.7035
  766TIP3    H218871   2.991   4.526  -0.003 -0.1302 -0.4902 -0.0883
  767TIP3   OH218872   3.972   6.092   1.639 -0.6065  0.2263  0.2855
  767TIP3    H118873   3.950   6.041   1.717  0.8450 -0.1903  0.4523
  767TIP3    H218874   3.924   6.049   1.568 -0.4683 -0.5582  0.6509
  768TIP3   OH218875   0.809   2.104   7.291  0.0922  0.7163  0.1443
  768TIP3    H118876   0.740   2.117   7.355 -1.0944  2.3998 -1.3747
  768TIP3    H218877   0.801   2.178   7.231  1.1143 -0.7693 -1.9743
  769TIP3   OH218878   1.814   2.736   2.248 -0.4323  0.2111  0.3626
  769TIP3    H118879   1.784   2.701   2.164 -0.1503 -0.2275  0.4427
  769TIP3    H218880   1.884   2.797   2.224 -0.0052 -0.2932  0.3069
  770TIP3   OH218881   0.452   3.360   1.273 -0.0658  0.3245 -0.3571
  770TIP3    H118882   0.391   3.434   1.274  0.4527  0.7632 -0.5118
  770TIP3    H218883   0.534   3.397   1.307  0.3759 -0.0229 -1.0227
  771TIP3   OH218884   0.389   2.946   6.264  0.0691  0.1724  0.0979
  771TIP3    H118885   0.438   2.871   6.299 -0.9247 -0.0543  1.0607
  771TIP3    H218886   0.413   3.019   6.320 -2.1640 -0.3665  1.9537
  772TIP3   OH218887   1.143   2.007   2.192  0.0335  0.0669  0.2917
  772TIP3    H118888   1.088   1.965   2.126 -0.1405 -0.7034  0.9096
  772TIP3    H218889   1.198   2.068   2.143 -0.9797  0.4368 -0.4010
  773TIP3   OH218890   6.392   3.106   7.772 -0.4699 -0.2201 -0.1391
  773TIP3    H118891   6.412   3.200   7.775  0.3189 -0.4149  2.1879
  773TIP3    H218892   6.459   3.069   7.714 -0.1740  0.5078 -0.2730
  774TIP3   OH218893   1.606   5.030   0.322 -0.2264  0.1491 -0.2696
  774TIP3    H118894   1.610   5.124   0.338 -1.8170  0.3324 -0.8293
  774TIP3    H218895   1.659   5.016   0.244 -0.5749  0.6826 -0.6019
  775TIP3   OH218896   2.701   1.051   8.902 -0.3845  0.1459  0.4946
  775TIP3    H118897   2.708   1.034   8.809 -0.3002  2.9463 -0.1051
  775TIP3    H218898   2.616   1.014   8.928 -1.1436  0.7326 -1.0599
  776TIP3   OH218899   2.600   1.282   8.418 -0.5725 -0.0835 -0.4104
  776TIP3    H118900   2.651   1.203   8.399 -1.5255 -1.1929  1.3725
  776TIP3    H218901   2.525   1.277   8.358  1.3751  1.7052 -3.2530
  777TIP3   OH218902   5.997   4.110   1.117 -0.2224 -0.7394 -0.1973
  777TIP3    H118903   6.076   4.058   1.126  0.3202 -0.1069 -1.0598
  777TIP3    H218904   6.024   4.199   1.138 -1.0519 -0.7214  0.9032
  778TIP3   OH218905   2.314   3.675   1.968 -0.0082  0.5409 -0.3189
  778TIP3    H118906   2.244   3.670   2.033  0.4665 -1.3407  0.0973
  778TIP3    H218907   2.280   3.629   1.892  0.7944 -0.4949 -0.0700
  779TIP3   OH218908   5.830   5.140   2.471  0.2261 -0.1943 -0.4662
  779TIP3    H118909   5.877   5.222   2.481  0.7933 -0.4383 -1.0470
  779TIP3    H218910   5.806   5.114   2.561 -0.4879  0.8904 -0.3265
  780TIP3   OH218911   1.416   0.763   9.158 -0.2975  0.3015  0.0467
  780TIP3    H118912   1.504   0.780   9.124 -0.2179 -1.1104 -0.5123
  780TIP3    H218913   1.383   0.691   9.104 -1.0024 -0.5464  1.5451
  781TIP3   OH218914   1.446   4.850   2.411  0.2004 -0.6509 -0.1857
  781TIP3    H118915   1.475   4.923   2.355  2.7145 -0.6487  0.9664
  781TIP3    H218916   1.472   4.772   2.362  0.3964 -0.6989 -0.0038
  782TIP3   OH218917   6.266   1.538   0.931 -0.1760  0.5554 -0.2830
  782TIP3    H118918   6.297   1.448   0.920  0.5362  1.0220 -2.6578
  782TIP3    H218919   6.171   1.531   0.931 -0.1350 -0.2872  0.7593
  783TIP3   OH218920   5.813   5.703   0.242  0.2438 -0.4888 -0.5407
  783TIP3    H118921   5.773   5.631   0.193 -1.3273  1.1698 -1.8126
  783TIP3    H218922   5.772   5.699   0.329  2.0193 -2.5840  0.2992
  784TIP3   OH218923   4.335   3.533   7.460 -0.3823  0.0283  0.4629
  784TIP3    H118924   4.332   3.627   7.479  0.7033  0.1613  0.0655
  784TIP3    H218925   4.243   3.505   7.463 -0.8579  1.3475 -0.5800
  785TIP3   OH218926   0.342   6.217   8.380  0.1044 -0.4934  0.2357
  785TIP3    H118927   0.305   6.264   8.306  0.0129 -0.1545  0.4906
  785TIP3    H218928   0.301   6.130   8.377 -0.4045 -0.2571  0.2800
  786TIP3   OH218929   0.341   2.896   7.846 -0.2477 -0.3027  0.1521
  786TIP3    H118930   0.341   2.909   7.940  0.1607  0.8939  0.0084
  786TIP3    H218931   0.324   2.803   7.834  1.9090 -0.9398  1.4787
  787TIP3   OH218932   4.789   4.233   6.765  0.0435 -0.3245  0.2377
  787TIP3    H118933   4.864   4.291   6.748  0.4291 -0.5595  1.0939
  787TIP3    H218934   4.736   4.280   6.829  1.1025 -1.4932  2.0603
  788TIP3   OH218935   5.560   6.231   7.593 -0.5440  0.6538 -0.2663
  788TIP3    H118936   5.546   6.277   7.676 -2.3249 -1.2326  0.5610
  788TIP3    H218937   5.643   6.186   7.604 -0.6037  0.6928  0.3834
  789TIP3   OH218938   4.034   3.048   6.849 -0.0670  0.1874 -0.3773
  789TIP3    H118939   3.949   3.005   6.854 -0.3595  0.5380 -1.9034
  789TIP3    H218940   4.013   3.140   6.831  0.5879  0.7306  1.4451
  790TIP3   OH218941   5.993   2.374   9.243 -0.2695  0.0058 -0.3422
  790TIP3    H118942   5.966   2.413   9.160 -1.9117 -0.8783 -0.2537
  790TIP3    H218943   6.017   2.449   9.298  0.8245  0.6054 -1.5779
  791TIP3   OH218944   4.459   3.995   0.005  0.0795  0.5985  0.3264
  791TIP3    H118945   4.526   3.990   0.074  0.8212 -0.2040 -0.4217
  791TIP3    H218946   4.445   3.904  -0.022  0.2700  0.9316 -0.9910
  792TIP3   OH218947   4.664   0.999   8.110 -0.0649 -0.6753  0.1598
  792TIP3    H118948   4.758   0.983   8.118 -0.1377 -2.2607 -1.5675
  792TIP3    H218949   4.631   0.923   8.063 -2.1428  0.1205  0.2461
  793TIP3   OH218950   0.436   2.393   0.357  0.2473  0.1062  0.6828
  793TIP3    H118951   0.384   2.313   0.356  1.0201 -0.4914 -2.5068
  793TIP3    H218952   0.378   2.460   0.320  0.6144  0.2556  0.3706
  794TIP3   OH218953   2.173   5.269   1.811 -0.0739  0.2137  0.0971
  794TIP3    H118954   2.232   5.222   1.753 -0.0690  0.4553 -0.0936
  794TIP3    H218955   2.212   5.355   1.821 -1.2198  0.9427 -1.3380
  795TIP3   OH218956   0.164   0.284   8.310  0.0229 -0.3628  0.1167
  795TIP3    H118957   0.204   0.356   8.263  1.0354 -0.5011  0.7288
  795TIP3    H218958   0.107   0.242   8.246 -0.3630  0.7990 -0.3244
  796TIP3   OH218959   1.256   4.364   8.915  0.3171  0.1237 -0.0250
  796TIP3    H118960   1.332   4.422   8.911  0.2422  0.4704  2.1240
  796TIP3    H218961   1.193   4.411   8.970  0.3410 -2.0288  2.0042
  797TIP3   OH218962   4.105   4.807   0.381 -0.2199  0.1303 -0.1086
  797TIP3    H118963   4.165   4.871   0.342  0.3734 -0.9876 -1.1043
  797TIP3    H218964   4.127   4.808   0.474  1.4866 -0.3443 -0.4685
  798TIP3   OH218965   4.610   0.765   1.648 -0.0780  1.0842  0.4502
  798TIP3    H118966   4.662   0.817   1.708  1.2551  0.0603  0.2220
  798TIP3    H218967   4.674   0.725   1.589 -1.2568  1.1979 -0.9757
  799TIP3   OH218968   1.745   3.581   7.907 -0.1198  0.0892  0.6295
  799TIP3    H118969   1.725   3.627   7.825  0.9304  1.6709  1.2041
  799TIP3    H218970   1.839   3.569   7.906 -0.3879 -2.4361  0.3692
  800TIP3   OH218971   2.844   2.919   7.430  0.3195  0.0043  0.1456
  800TIP3    H118972   2.753   2.936   7.457  0.4450 -0.8730  1.2163
  800TIP3    H218973   2.837   2.891   7.339 -0.2613  1.8867 -0.4490
  801TIP3   OH218974   1.528   3.444   8.630 -0.5408  0.6972  0.2209
  801TIP3    H118975   1.502   3.517   8.575 -0.8191  1.0828  0.8513
  801TIP3    H218976   1.556   3.484   8.712 -0.8517  0.0996  0.6317
  802TIP3   OH218977   5.357   0.396   0.076  0.2673 -0.0503  0.6641
  802TIP3    H118978   5.294   0.331   0.107  1.1982 -1.0223  0.5850
  802TIP3    H218979   5.410   0.349   0.011  0.0537  1.1973 -0.4691
  803TIP3   OH218980   1.470   5.061   0.699 -0.2496 -0.4153  0.0791
  803TIP3    H118981   1.393   5.112   0.674 -0.2777 -0.4105  0.1720
  803TIP3    H218982   1.473   5.067   0.794  1.2286  1.5393 -0.0403
  804TIP3   OH218983   1.053   0.715   9.093 -0.0503 -0.4763  0.0210
  804TIP3    H118984   1.100   0.709   9.009  1.0943 -1.1481  0.6861
  804TIP3    H218985   1.014   0.628   9.105 -0.5545 -0.2557 -0.0015
  805TIP3   OH218986   1.232   2.219   8.132 -0.1205  0.3861  0.1550
  805TIP3    H118987   1.232   2.170   8.215  3.3630 -1.0868 -0.5487
  805TIP3    H218988   1.177   2.167   8.074 -0.3158 -0.0873  0.7432
  806TIP3   OH218989   1.737   4.646   3.086 -0.0935  0.4682 -0.3310
  806TIP3    H118990   1.698   4.729   3.057 -0.1434 -0.2666 -2.5757
  806TIP3    H218991   1.669   4.605   3.140 -0.0906  1.8256  0.7610
  807TIP3   OH218992   2.948   1.768   2.306 -0.1388 -0.5688  0.5517
  807TIP3    H118993   3.029   1.796   2.263 -0.6905 -0.7530 -0.6414
  807TIP3    H218994   2.880   1.822   2.267 -1.0206 -2.5003 -0.7533
  808TIP3   OH218995   3.479   2.062   6.401 -0.1731 -0.3073 -0.2147
  808TIP3    H118996   3.542   2.115   6.449  0.5949 -0.4780 -1.0158
  808TIP3    H218997   3.507   2.068   6.310 -1.8141  0.3102 -0.7103
  809TIP3   OH218998   2.813   1.821   0.022 -0.1290 -0.2883 -0.5824
  809TIP3    H118999   2.873   1.746   0.032 -0.0224 -0.5485 -2.7985
  809TIP3    H219000   2.779   1.835   0.111  3.6040  0.2585  0.9656
  810TIP3   OH219001   1.257   0.564   2.140 -0.6157 -0.2318  0.6883
  810TIP3    H119002   1.233   0.543   2.230  0.2861 -0.9933  0.7577
  810TIP3    H219003   1.294   0.483   2.105 -1.3123 -0.0628 -0.4994
  811TIP3   OH219004   6.367   4.431   8.189  0.0489  0.3495  0.2378
  811TIP3    H119005   6.307   4.400   8.120  0.4405 -1.3803  0.6348
  811TIP3    H219006   6.387   4.353   8.240  2.0891  1.0163  0.5498
  812TIP3   OH219007   2.056   3.203   1.393  0.3455  0.1977 -0.0887
  812TIP3    H119008   2.103   3.184   1.312 -0.5301  0.1653 -0.6061
  812TIP3    H219009   1.970   3.163   1.381  0.0217  0.6486  0.6358
  813TIP3   OH219010   4.878   0.614   8.183 -0.1627 -0.0988  0.1470
  813TIP3    H119011   4.894   0.682   8.248 -0.8595  2.4184 -2.1608
  813TIP3    H219012   4.965   0.594   8.147  0.3319 -2.0097  2.1582
  814TIP3   OH219013   0.770   4.279   8.658 -0.1941  0.5079  0.2181
  814TIP3    H119014   0.789   4.243   8.745  0.4098 -0.5011 -0.3037
  814TIP3    H219015   0.676   4.270   8.648 -0.0972 -0.7197  0.2212
  815TIP3   OH219016   0.811   2.122   1.862 -0.0807  0.5544 -0.2752
  815TIP3    H119017   0.884   2.160   1.813  0.3923  0.7079  0.5326
  815TIP3    H219018   0.792   2.039   1.818  0.0161  0.9196 -1.0076
  816TIP3   OH219019   4.936   5.116   3.069 -0.7777 -0.9272 -0.0281
  816TIP3    H119020   5.010   5.176   3.077 -1.5257 -0.1679  1.8923
  816TIP3    H219021   4.864   5.170   3.036 -0.9132 -1.2540 -0.2718
  817TIP3   OH219022   0.225   0.634   1.302 -0.8120 -0.3215  0.4503
  817TIP3    H119023   0.316   0.610   1.321 -0.5744  0.6931  0.6840
  817TIP3    H219024   0.211   0.606   1.212 -0.1496 -0.1746  0.2964
  818TIP3   OH219025   2.653   5.664   2.440 -0.0139 -0.3257 -0.2147
  818TIP3    H119026   2.716   5.602   2.404 -3.1603 -3.1395 -1.5161
  818TIP3    H219027   2.634   5.724   2.367  0.1469 -0.3780 -0.2997
  819TIP3   OH219028   1.590   3.683   7.656 -0.3643  0.0731 -0.0146
  819TIP3    H119029   1.557   3.773   7.653  1.0150  0.6314  0.7469
  819TIP3    H219030   1.681   3.690   7.626  0.0437 -0.9111  0.9276
  820TIP3   OH219031   2.759   0.006   7.243  0.1027 -0.3647 -0.0405
  820TIP3    H119032   2.749  -0.020   7.151  1.0670 -0.1059 -0.2271
  820TIP3    H219033   2.799   0.093   7.239  1.4476 -0.9276  0.6342
  821TIP3   OH219034   4.648   4.872   0.388 -0.0343 -0.3287 -0.2500
  821TIP3    H119035   4.594   4.805   0.431  0.5061  0.6835  2.1920
  821TIP3    H219036   4.597   4.952   0.394  0.3122 -0.0362 -1.0447
  822TIP3   OH219037   1.736   3.247   0.248 -0.1290 -0.2749 -0.2571
  822TIP3    H119038   1.661   3.194   0.221  1.1208 -2.6657  0.6363
  822TIP3    H219039   1.804   3.228   0.183  0.5688 -0.3972  0.4855
  823TIP3   OH219040   6.029   4.630   3.056  0.5900  0.0975  0.1024
  823TIP3    H119041   6.053   4.718   3.029 -0.9945  0.6733  0.4568
  823TIP3    H219042   6.018   4.636   3.151  0.2069 -0.4002  0.0956
  824TIP3   OH219043   6.152   2.130   2.620  0.8260 -0.1897  0.1967
  824TIP3    H119044   6.242   2.111   2.646  0.2394  0.4105  3.1581
  824TIP3    H219045   6.114   2.172   2.698 -1.5945  0.9316 -1.4614
  825TIP3   OH219046   5.483   2.653   6.246 -0.0945  0.3067 -0.0378
  825TIP3    H119047   5.482   2.558   6.235  1.9030  0.2127  0.1616
  825TIP3    H219048   5.424   2.670   6.319 -0.5673 -0.7583 -0.1530
  826TIP3   OH219049   2.465   2.000   6.009  0.4971 -0.0298 -0.0031
  826TIP3    H119050   2.526   1.931   5.981  0.8121 -0.0241  0.6425
  826TIP3    H219051   2.521   2.077   6.022  0.0742  0.5249 -1.2569
  827TIP3   OH219052   0.624   1.987   8.505  0.3082 -0.3737  0.3328
  827TIP3    H119053   0.528   1.985   8.503  0.2799  0.5211  0.5975
  827TIP3    H219054   0.649   2.015   8.417  0.3778 -1.7895 -0.1213
  828TIP3   OH219055   4.206   0.896   8.169  0.0873  0.0133  0.0678
  828TIP3    H119056   4.217   0.803   8.188 -1.7863 -0.1052  0.7925
  828TIP3    H219057   4.285   0.937   8.204  2.0169 -1.4741 -2.2465
  829TIP3   OH219058   6.172   6.467   0.174  0.2034 -0.4297 -0.0783
  829TIP3    H119059   6.192   6.408   0.247 -1.4758  1.4723  2.0656
  829TIP3    H219060   6.086   6.439   0.143 -0.7838  1.0345  1.2114
  830TIP3   OH219061   0.614   6.165   2.417  0.5141 -0.5706  0.3962
  830TIP3    H119062   0.640   6.090   2.471  2.3377  0.0324  0.4063
  830TIP3    H219063   0.553   6.214   2.472  0.4889 -1.2444  0.9789
  831TIP3   OH219064   1.090   3.129   9.246 -0.0528 -0.3149  0.2978
  831TIP3    H119065   1.121   3.218   9.266  2.5224 -1.0615  0.0662
  831TIP3    H219066   1.098   3.082   9.329  0.3198 -0.7446  0.0263
  832TIP3   OH219067   6.162   4.965   1.706 -0.0393 -0.4779 -0.3133
  832TIP3    H119068   6.121   5.050   1.690  0.6028  0.7013  3.4107
  832TIP3    H219069   6.090   4.905   1.724 -0.3872 -0.0864 -0.4029
  833TIP3   OH219070  -0.007   1.573   6.921 -0.0362  0.4278  0.0580
  833TIP3    H119071  -0.056   1.517   6.982 -2.9198 -0.2337 -2.5775
  833TIP3    H219072   0.069   1.521   6.895 -1.3031 -1.2983 -0.3882
  834TIP3   OH219073   3.267   5.463   1.955 -0.1977  0.2567  0.2204
  834TIP3    H119074   3.335   5.524   1.983 -1.6276  1.6872  0.6630
  834TIP3    H219075   3.313   5.379   1.946  2.4223  1.8203 -3.0200
  835TIP3   OH219076   5.998   4.768   1.217 -0.1921 -0.1514 -0.1969
  835TIP3    H119077   6.031   4.733   1.300 -0.5466 -0.6224 -0.2485
  835TIP3    H219078   5.908   4.736   1.211 -0.7325  1.2670  0.0270
  836TIP3   OH219079   0.481   5.397   2.851 -0.3623  0.0025  0.2348
  836TIP3    H119080   0.563   5.372   2.895 -1.5679  0.6648  3.0642
  836TIP3    H219081   0.493   5.489   2.828 -0.1491 -0.0254  0.2330
  837TIP3   OH219082   4.626   5.468   2.566  0.8847 -0.3503 -0.1300
  837TIP3    H119083   4.646   5.379   2.536  0.5381  0.0867 -1.7152
  837TIP3    H219084   4.679   5.479   2.645  1.6814 -1.6148 -0.4673
  838TIP3   OH219085   0.797   4.025   9.404 -0.5514 -0.3618  0.6659
  838TIP3    H119086   0.780   3.954   9.342 -1.2555  0.2428  0.1456
  838TIP3    H219087   0.892   4.025   9.414 -0.5036 -1.0762  0.3192
  839TIP3   OH219088   3.417   5.605   2.374  0.1948 -0.4563  0.3260
  839TIP3    H119089   3.421   5.581   2.466  0.6128 -1.7826 -0.0153
  839TIP3    H219090   3.503   5.581   2.339  0.2409  0.5652 -0.2925
  840TIP3   OH219091   2.197   0.435   1.756 -0.2380  0.2617 -0.6346
  840TIP3    H119092   2.259   0.380   1.708 -0.6061  0.5247 -1.4207
  840TIP3    H219093   2.235   0.443   1.844  0.0602 -0.8568 -0.6485
  841TIP3   OH219094   5.049   6.360   1.478 -0.1022  0.4688  0.0997
  841TIP3    H119095   5.004   6.325   1.402 -0.3028 -1.5555  1.0755
  841TIP3    H219096   4.985   6.354   1.549  0.8269 -0.0002  0.9363
  842TIP3   OH219097   5.867   5.996   8.600 -0.2572 -0.0799  0.0296
  842TIP3    H119098   5.872   5.934   8.673  2.5066  0.0077  0.0196
  842TIP3    H219099   5.893   5.945   8.523 -3.5046 -0.2722 -1.1046
  843TIP3   OH219100   5.514   1.806   8.667  0.4005  0.1063  0.0671
  843TIP3    H119101   5.439   1.756   8.700 -0.0346  0.5451 -0.2321
  843TIP3    H219102   5.570   1.819   8.743 -0.6473  1.2206  0.6746
  844TIP3   OH219103   0.895   1.118   0.927  0.0703  0.1583  0.1743
  844TIP3    H119104   0.949   1.111   0.849 -0.0580  0.2372  0.0766
  844TIP3    H219105   0.847   1.035   0.932 -1.1124  0.7568 -0.7288
  845TIP3   OH219106   6.259   0.334   6.641  0.3163  0.0847 -0.0707
  845TIP3    H119107   6.213   0.250   6.639  0.7080 -0.1200 -0.6133
  845TIP3    H219108   6.191   0.398   6.622  0.0764 -0.1377  0.0252
  846TIP3   OH219109   1.339   3.870   9.181  0.2786  0.3321 -0.3821
  846TIP3    H119110   1.279   3.941   9.156 -0.3792  0.0702  0.4259
  846TIP3    H219111   1.299   3.791   9.146 -0.0401  0.1117  0.4667
  847TIP3   OH219112   5.288   3.205   7.933 -0.1449  0.0826 -0.2377
  847TIP3    H119113   5.300   3.111   7.945 -2.5024 -0.3727 -0.9530
  847TIP3    H219114   5.323   3.244   8.014 -0.0143 -1.4761  0.4960
  848TIP3   OH219115   1.884   2.198   1.434 -0.1522  0.4580 -0.2182
  848TIP3    H119116   1.800   2.201   1.388  0.0286  1.0181 -0.5146
  848TIP3    H219117   1.898   2.287   1.465  0.4164  0.4088 -0.3252
  849TIP3   OH219118   4.968   2.515   7.480 -0.8451 -0.1637 -0.1373
  849TIP3    H119119   5.013   2.439   7.518 -0.6725  0.0720  0.1356
  849TIP3    H219120   5.028   2.548   7.414 -1.0837 -0.4881 -0.5235
  850TIP3   OH219121   2.469   4.198   3.002 -0.2172 -0.2567  0.0952
  850TIP3    H119122   2.377   4.172   3.006  0.3632 -2.4192  2.9629
  850TIP3    H219123   2.482   4.252   3.080  0.5139  2.0317 -1.5002
  851TIP3   OH219124   1.658   5.187   7.190 -0.2811 -0.3950 -0.1280
  851TIP3    H119125   1.676   5.094   7.199  1.6740 -0.0973 -0.4990
  851TIP3    H219126   1.744   5.227   7.179 -1.1152  1.4060 -0.4677
  852TIP3   OH219127   1.876   1.084   8.457  0.0909 -0.0035  1.0888
  852TIP3    H119128   1.782   1.098   8.457  0.1182  0.4108 -0.7774
  852TIP3    H219129   1.912   1.161   8.502 -0.3629  0.9343 -0.0967
  853TIP3   OH219130   1.160   0.221   2.194 -0.1087  0.5273 -0.4881
  853TIP3    H119131   1.220   0.283   2.153 -0.1808  0.1378 -1.2018
  853TIP3    H219132   1.087   0.275   2.226  0.7440  1.0415  0.6553
  854TIP3   OH219133   0.543   1.926   0.255  0.3119 -0.5127 -0.0122
  854TIP3    H119134   0.499   1.988   0.197 -0.1971 -0.2659  0.6241
  854TIP3    H219135   0.591   1.981   0.317 -0.3953 -0.7375  0.7489
  855TIP3   OH219136   3.297   3.604   6.775  0.5877  0.0342  0.1247
  855TIP3    H119137   3.247   3.524   6.786  1.1855 -0.4185 -0.3512
  855TIP3    H219138   3.373   3.578   6.722  2.0498  0.3851  1.9257
  856TIP3   OH219139   5.044   1.700   8.316 -0.6684 -0.1056 -0.2807
  856TIP3    H119140   5.134   1.721   8.292 -0.2149 -2.0107 -0.4154
  856TIP3    H219141   5.025   1.619   8.270 -1.7495 -0.8260  1.3386
  857TIP3   OH219142   3.228   5.146   7.742  0.0727  0.2563 -0.0789
  857TIP3    H119143   3.149   5.181   7.701 -0.4252  0.1747  0.7845
  857TIP3    H219144   3.200   5.121   7.830  0.5814 -1.6239 -0.4092
  858TIP3   OH219145   6.368   0.931   0.491  0.7508  0.7852 -0.1600
  858TIP3    H119146   6.325   1.012   0.464  0.8539  1.2388  1.0058
  858TIP3    H219147   6.386   0.943   0.584  1.6569 -0.1786 -0.1940
  859TIP3   OH219148   0.792   0.256   7.457 -0.5961 -0.2048  0.2849
  859TIP3    H119149   0.725   0.312   7.418 -2.3602 -2.5186 -0.3006
  859TIP3    H219150   0.747   0.212   7.530  0.7704 -0.6327  0.8937
  860TIP3   OH219151   3.150   0.325   6.711 -0.1041 -0.3993 -0.0293
  860TIP3    H119152   3.094   0.280   6.647 -0.8086 -1.1872  1.0977
  860TIP3    H219153   3.119   0.416   6.710  0.7196 -0.0992 -1.6743
  861TIP3   OH219154   0.134   5.929   9.280 -0.1019  0.8685 -0.2974
  861TIP3    H119155   0.200   5.979   9.232 -0.7744  1.1165 -0.9808
  861TIP3    H219156   0.093   5.992   9.338 -1.1117  1.1830 -1.3291
  862TIP3   OH219157   4.226   0.420   6.291  0.5162 -0.4182 -0.1484
  862TIP3    H119158   4.246   0.335   6.331  1.1102 -0.3701 -0.3358
  862TIP3    H219159   4.156   0.401   6.229  0.2725 -0.6711  0.1955
  863TIP3   OH219160   1.136   1.515   7.863 -0.4378 -0.5598  0.0951
  863TIP3    H119161   1.179   1.548   7.942 -0.3220 -0.2474 -0.0947
  863TIP3    H219162   1.102   1.594   7.820 -1.5829 -0.8301  0.4535
  864TIP3   OH219163   1.120   3.452   1.466 -0.1488 -0.2080  0.9241
  864TIP3    H119164   1.152   3.368   1.434 -2.4928 -0.7362 -0.2359
  864TIP3    H219165   1.164   3.517   1.412 -1.0200 -0.9151 -0.7304
  865TIP3   OH219166   4.335   6.298   1.946  0.2857  0.5701 -0.5431
  865TIP3    H119167   4.288   6.221   1.977 -0.6488  1.0253 -0.7814
  865TIP3    H219168   4.381   6.268   1.867  1.2763 -0.1494  0.2855
  866TIP3   OH219169   4.789   0.290   9.053  0.3033 -0.5048 -0.2829
  866TIP3    H119170   4.759   0.355   8.989  0.3511  0.7526  0.9203
  866TIP3    H219171   4.776   0.333   9.138 -0.7778 -2.5204  0.6472
  867TIP3   OH219172   0.974   3.554   7.501  0.7242 -0.4443 -0.2194
  867TIP3    H119173   0.881   3.573   7.498  0.4607 -1.6594 -0.1642
  867TIP3    H219174   0.993   3.541   7.594  0.9379 -0.2476 -0.2350
  868TIP3   OH219175   5.403   4.631   7.211  0.1999 -0.6563  0.0490
  868TIP3    H119176   5.431   4.633   7.303 -1.6142 -1.6804  0.6715
  868TIP3    H219177   5.308   4.626   7.215  0.1435 -2.3941 -1.8463
  869TIP3   OH219178   5.242   3.586   7.858  0.4187  0.2105 -0.6252
  869TIP3    H119179   5.277   3.582   7.947 -0.5381 -0.4674 -0.2683
  869TIP3    H219180   5.157   3.543   7.863 -0.9623  2.6746 -1.2482
  870TIP3   OH219181   6.263   3.782   8.347  0.5438  0.0899 -0.7816
  870TIP3    H119182   6.303   3.710   8.395 -0.8147  0.4311  0.9943
  870TIP3    H219183   6.169   3.762   8.348 -0.0955  2.5502  1.1991
  871TIP3   OH219184   5.436   6.303   1.374 -0.4503  0.0875 -0.7279
  871TIP3    H119185   5.452   6.228   1.431 -0.8384  0.2142 -0.4459
  871TIP3    H219186   5.474   6.378   1.420 -3.1068  0.6627  0.7047
  872TIP3   OH219187   6.272   4.364   0.705  0.2970  0.2214  0.1087
  872TIP3    H119188   6.249   4.344   0.614  0.2104 -0.3308  0.2440
  872TIP3    H219189   6.267   4.459   0.711  0.0142  0.2422 -0.3888
  873TIP3   OH219190   0.248   4.963   0.964  0.7379 -0.0788 -0.0902
  873TIP3    H119191   0.305   4.903   0.915  0.0975 -0.7243 -0.0676
  873TIP3    H219192   0.160   4.928   0.950  0.4550  0.2645  0.7683
  874TIP3   OH219193   5.362   3.875   7.376  0.6038 -0.0274 -0.5367
  874TIP3    H119194   5.356   3.783   7.402  0.5072  0.6529  2.1738
  874TIP3    H219195   5.436   3.878   7.316  1.0359 -1.7639 -0.1600
  875TIP3   OH219196   4.354   4.284   2.032 -0.1284 -0.8213 -0.2364
  875TIP3    H119197   4.303   4.232   2.094  0.8581 -2.5395 -0.8110
  875TIP3    H219198   4.428   4.317   2.083 -0.9001  0.3070  0.1962
  876TIP3   OH219199   3.602   1.121   0.008 -0.3516 -0.2368  0.1095
  876TIP3    H119200   3.540   1.082  -0.054  1.2327 -1.3682 -0.8465
  876TIP3    H219201   3.575   1.087   0.093 -1.9422  0.5098 -0.0632
  877TIP3   OH219202   0.426   2.835   0.996  0.8294  0.0711 -0.5804
  877TIP3    H119203   0.471   2.766   0.947  0.3713 -0.2896 -0.4886
  877TIP3    H219204   0.452   2.916   0.951  1.6951 -0.1126 -0.4389
  878TIP3   OH219205   1.455   1.794   2.897 -0.1817  0.0552 -0.2094
  878TIP3    H119206   1.407   1.807   2.815 -1.4997 -0.9325  0.3585
  878TIP3    H219207   1.408   1.848   2.961 -1.4686 -1.9655  0.6544
  879TIP3   OH219208   3.631   1.972   1.424 -0.1987  0.0071 -0.5610
  879TIP3    H119209   3.687   1.904   1.388  0.5016 -0.9265  2.0466
  879TIP3    H219210   3.542   1.943   1.404  0.0990 -1.5985  0.2913
  880TIP3   OH219211   4.871   4.217   8.206 -0.1587  0.0843  0.4616
  880TIP3    H119212   4.814   4.274   8.155 -0.2597  0.1284  0.6223
  880TIP3    H219213   4.958   4.257   8.199 -0.2923  0.4555  0.8612
  881TIP3   OH219214   3.096   4.689   2.340 -0.0683 -0.1214 -0.0619
  881TIP3    H119215   3.094   4.783   2.355 -0.9582 -0.0245 -0.7292
  881TIP3    H219216   3.097   4.679   2.245  2.5398 -0.7634 -0.0382
  882TIP3   OH219217   2.123   6.042   1.598 -0.0927  0.0536  0.4634
  882TIP3    H119218   2.076   6.091   1.531 -1.0654 -0.8563  0.4566
  882TIP3    H219219   2.206   6.089   1.609 -0.2525  0.6552 -0.8073
  883TIP3   OH219220   5.616   0.004   0.377 -0.3014 -0.6554  0.4430
  883TIP3    H119221   5.545   0.066   0.394  1.2849  1.2265  0.6488
  883TIP3    H219222   5.606  -0.019   0.285 -2.5473 -2.3663  1.0242
  884TIP3   OH219223   6.283   1.956   8.501 -0.0026 -1.0256  0.1135
  884TIP3    H119224   6.232   2.026   8.459  1.4382  0.4731  0.7168
  884TIP3    H219225   6.218   1.891   8.527 -1.4653  0.2740 -0.1219
  885TIP3   OH219226   1.171   1.895   7.325  0.2829  0.3051  0.1700
  885TIP3    H119227   1.182   1.930   7.414  1.8278 -0.5536  0.3540
  885TIP3    H219228   1.079   1.868   7.322  0.3595 -0.2661  1.7433
  886TIP3   OH219229   5.707   4.707   8.241 -0.0741 -0.3991  0.1051
  886TIP3    H119230   5.665   4.633   8.285  0.4229 -1.0914 -0.5547
  886TIP3    H219231   5.795   4.676   8.220  0.7464  0.9759  1.3191
  887TIP3   OH219232   2.137   3.968   8.999  0.4787  0.0429  0.0346
  887TIP3    H119233   2.084   3.909   8.945  0.3256 -0.4025  0.6625
  887TIP3    H219234   2.081   3.986   9.076  0.5574  0.9306 -0.1069
  888TIP3   OH219235   3.021   5.601   0.657 -0.2006 -0.0719  0.0267
  888TIP3    H119236   2.943   5.638   0.616  0.5040  0.0169 -1.2807
  888TIP3    H219237   2.994   5.582   0.747 -2.1052 -1.2143 -0.7301
  889TIP3   OH219238   0.424   5.274   0.901 -0.4291 -0.3407  0.6534
  889TIP3    H119239   0.508   5.229   0.906  1.2421  2.1793 -1.9590
  889TIP3    H219240   0.416   5.320   0.984  0.1070 -1.5540  1.4127
  890TIP3   OH219241   2.141   0.535   8.829  0.4320  1.0138 -0.1179
  890TIP3    H119242   2.124   0.443   8.806  2.9697  0.7965 -1.4611
  890TIP3    H219243   2.070   0.583   8.787 -0.6694 -0.2615  0.1909
  891TIP3   OH219244   6.028   2.080   8.748 -0.6731 -0.2609  0.7013
  891TIP3    H119245   6.021   2.155   8.807 -1.9698  0.5884 -0.4790
  891TIP3    H219246   6.092   2.022   8.790  1.4218  2.1121  0.9883
  892TIP3   OH219247   1.878   4.706   7.367  0.2494 -0.0705 -0.7596
  892TIP3    H119248   1.814   4.646   7.407  0.8220  0.4145  0.9754
  892TIP3    H219249   1.881   4.680   7.275 -0.3659 -1.9518 -0.2885
  893TIP3   OH219250   1.464   1.385   0.891 -0.4650  0.1793  0.0733
  893TIP3    H119251   1.373   1.408   0.870  0.2841  2.4192 -1.0400
  893TIP3    H219252   1.481   1.430   0.974 -0.1966  0.2237 -0.0061
  894TIP3   OH219253   4.198   5.316   8.318  0.3993  0.0959  0.2336
  894TIP3    H119254   4.162   5.238   8.362  0.8925 -1.2146 -1.5736
  894TIP3    H219255   4.152   5.389   8.358 -0.7389 -1.1901  1.3802
  895TIP3   OH219256   4.633   5.514   9.118 -0.0831 -0.5951  0.5697
  895TIP3    H119257   4.607   5.542   9.030  1.1318  0.4669  0.5178
  895TIP3    H219258   4.708   5.458   9.104 -0.5570 -1.3165  0.8793
  896TIP3   OH219259   5.190   3.330   2.694  0.3581 -0.0632 -0.0485
  896TIP3    H119260   5.236   3.412   2.713  1.2381 -0.5718  0.0713
  896TIP3    H219261   5.112   3.334   2.749  1.0253  0.1457  0.9216
  897TIP3   OH219262   0.248   2.969   0.582  0.2594 -0.9114 -0.0390
  897TIP3    H119263   0.165   2.930   0.607  1.3501 -1.7651  2.5794
  897TIP3    H219264   0.300   2.896   0.549  0.3829 -0.6035 -0.5362
  898TIP3   OH219265   0.580   3.101   7.429  0.0808  0.0218  0.0105
  898TIP3    H119266   0.511   3.057   7.379 -0.9438 -1.0345  2.1916
  898TIP3    H219267   0.661   3.077   7.385 -0.6965 -1.6866 -0.5951
  899TIP3   OH219268   3.126   0.253   7.028  0.0666  0.7448 -0.3618
  899TIP3    H119269   3.150   0.339   7.062 -0.5099  0.6175  0.4118
  899TIP3    H219270   3.129   0.263   6.933  1.4323  1.2017 -0.2902
  900TIP3   OH219271   2.821   0.912   1.161 -0.3553  0.1961  0.3697
  900TIP3    H119272   2.849   0.825   1.129 -1.6464  0.7384 -2.5804
  900TIP3    H219273   2.903   0.959   1.174  0.3794 -1.4167  2.0236
  901TIP3   OH219274   1.344   6.235   8.163 -0.4989 -0.0399 -0.6329
  901TIP3    H119275   1.311   6.287   8.236  0.4480 -0.2888 -0.0208
  901TIP3    H219276   1.264   6.205   8.117 -1.0669  1.7563 -0.8929
  902TIP3   OH219277   3.654   2.072   1.669 -0.2199 -0.3374  0.4608
  902TIP3    H119278   3.739   2.109   1.692  0.0133 -0.2390 -0.5019
  902TIP3    H219279   3.666   2.039   1.580 -1.2018 -0.2942  0.3044
  903TIP3   OH219280   2.443   4.776   7.729 -0.0653  0.4973 -0.0929
  903TIP3    H119281   2.424   4.730   7.810  1.0690 -0.5643 -0.3975
  903TIP3    H219282   2.441   4.869   7.753 -1.0217  0.2495  0.8445
  904TIP3   OH219283   0.507   2.384   6.295 -0.3246  0.3255  0.4347
  904TIP3    H119284   0.443   2.455   6.306 -0.6884  0.0716 -0.0169
  904TIP3    H219285   0.589   2.421   6.327 -0.5058  0.9655  0.1770
  905TIP3   OH219286   4.029   0.798   1.081 -0.0941 -0.4554 -0.5211
  905TIP3    H119287   4.042   0.741   1.156  1.6026  0.6398  0.0740
  905TIP3    H219288   3.938   0.784   1.055 -0.4270 -1.5631  1.1292
  906TIP3   OH219289   1.836   5.586   7.812  0.5175 -0.3815  0.1416
  906TIP3    H119290   1.805   5.521   7.875 -0.7840  1.0216  1.0051
  906TIP3    H219291   1.837   5.668   7.860  0.5300  0.5414 -1.3711
  907TIP3   OH219292   2.977   1.085   9.344  0.5018 -0.2727  0.0234
  907TIP3    H119293   2.883   1.099   9.327 -0.0829 -0.5521  2.5887
  907TIP3    H219294   3.021   1.156   9.298 -0.9899  0.0131 -1.0272
  908TIP3   OH219295   2.546   3.019   2.608 -0.5640 -0.3890 -0.0239
  908TIP3    H119296   2.451   3.034   2.611 -0.9406 -2.4691  0.1335
  908TIP3    H219297   2.582   3.083   2.669 -1.6522  1.6407 -1.3995
  909TIP3   OH219298   2.346   2.473   6.248 -1.2476 -0.4723 -0.0147
  909TIP3    H119299   2.439   2.450   6.246 -0.5651  2.0787 -1.2560
  909TIP3    H219300   2.301   2.391   6.228  0.6613 -1.8878  1.0768
  910TIP3   OH219301   6.345   4.874   1.505 -0.2685  0.0771 -0.2815
  910TIP3    H119302   6.282   4.806   1.480 -0.3567 -0.0365  0.2409
  910TIP3    H219303   6.301   4.922   1.575 -0.0329  0.4081 -0.3609
  911TIP3   OH219304   3.726   6.264   1.341  0.3476  0.4240  0.3574
  911TIP3    H119305   3.648   6.276   1.288  0.1842 -0.4604  0.3796
  911TIP3    H219306   3.796   6.305   1.290 -0.0746  0.9374  0.1897
  912TIP3   OH219307   3.292   3.046   6.955 -0.3052 -0.0359 -0.1803
  912TIP3    H119308   3.386   3.059   6.962 -0.2712 -0.3229 -0.0764
  912TIP3    H219309   3.281   2.951   6.953 -0.6961 -0.0416  1.2443
  913TIP3   OH219310   2.097   5.327   0.747  0.3658  0.0893 -0.0359
  913TIP3    H119311   2.116   5.233   0.742  0.0359 -0.1082  1.7540
  913TIP3    H219312   2.051   5.338   0.830  2.8574  2.2090  1.2325
  914TIP3   OH219313   5.479   5.105   6.689  0.7591  0.4938  0.2308
  914TIP3    H119314   5.493   5.085   6.596 -0.6238  1.0314 -0.1116
  914TIP3    H219315   5.521   5.190   6.701 -1.4348  1.7585 -0.6137
  915TIP3   OH219316   4.767   4.566   2.128 -0.3047 -0.4619  0.4456
  915TIP3    H119317   4.742   4.631   2.193 -1.3289 -1.2055  0.8164
  915TIP3    H219318   4.849   4.530   2.160  0.7315  1.1957 -0.1911
  916TIP3   OH219319   3.717   4.067   0.305 -0.5518 -0.3222  0.5709
  916TIP3    H119320   3.738   3.974   0.307  1.0647 -0.0105 -0.2415
  916TIP3    H219321   3.744   4.096   0.217 -1.7469  0.7614  0.5229
  917TIP3   OH219322   0.762   0.406   1.068  0.5011 -0.0957  0.2179
  917TIP3    H119323   0.756   0.360   0.984 -0.0128  0.6571 -0.1645
  917TIP3    H219324   0.693   0.367   1.122  0.0991  0.1801 -0.0903
  918TIP3   OH219325   4.324   3.468   0.792 -0.2995 -0.5382  0.5287
  918TIP3    H119326   4.314   3.563   0.802  0.1415 -0.3735 -0.4035
  918TIP3    H219327   4.266   3.430   0.858 -0.9773  0.3764  0.4803
  919TIP3   OH219328   0.533   1.186   8.776  0.7631 -0.1843 -0.1101
  919TIP3    H119329   0.557   1.236   8.855  1.7469 -0.8312  0.0244
  919TIP3    H219330   0.617   1.169   8.733  0.3097 -0.5668 -0.8558
  920TIP3   OH219331   1.685   5.583   8.192  0.1413 -0.1124  0.0022
  920TIP3    H119332   1.763   5.569   8.246  0.6208  2.0870 -0.0630
  920TIP3    H219333   1.690   5.674   8.165 -1.3542 -0.5130 -1.8016
  921TIP3   OH219334   2.382   4.979   1.352 -0.0483 -0.6087 -0.0911
  921TIP3    H119335   2.405   4.978   1.259  0.9081 -1.4123  0.1344
  921TIP3    H219336   2.312   4.914   1.360 -1.0750  0.4194 -0.4515
  922TIP3   OH219337   1.029   5.188   0.159 -0.1716  0.1266  0.0904
  922TIP3    H119338   1.021   5.283   0.163 -1.2474  0.0216  0.8341
  922TIP3    H219339   1.093   5.172   0.090 -2.3352  1.3047 -2.3690
  923TIP3   OH219340   1.331   4.549   9.267  0.2959 -0.1208  0.5951
  923TIP3    H119341   1.359   4.581   9.181  1.6387  0.1286  1.0960
  923TIP3    H219342   1.286   4.624   9.306 -0.3350 -0.2389  0.1301
  924TIP3   OH219343   3.522   4.071   8.985  0.3757  0.6062  0.4505
  924TIP3    H119344   3.464   4.112   8.922  0.1738 -0.1640  0.1222
  924TIP3    H219345   3.574   4.009   8.934  1.3497  1.1384  0.7741
  925TIP3   OH219346   2.754   4.792   0.668 -0.0556 -0.0252  0.1267
  925TIP3    H119347   2.831   4.846   0.684  0.3709 -1.1693  2.4834
  925TIP3    H219348   2.762   4.763   0.577  0.9198  1.9309 -0.4466
  926TIP3   OH219349   2.865   2.201   9.347 -0.1034 -0.0323 -0.0481
  926TIP3    H119350   2.905   2.167   9.267 -1.1647 -1.4206 -0.0224
  926TIP3    H219351   2.914   2.159   9.418  0.4404  0.7355  0.0518
  927TIP3   OH219352   6.193   1.271   8.812  0.1345  0.2045  0.1112
  927TIP3    H119353   6.241   1.342   8.854  0.6536 -0.2752  0.3540
  927TIP3    H219354   6.252   1.196   8.819  0.3440  0.1444 -1.6498
  928TIP3   OH219355   4.335   5.294   1.450 -0.9379  0.6225  0.5121
  928TIP3    H119356   4.418   5.280   1.404 -1.3390  0.4370 -0.1744
  928TIP3    H219357   4.358   5.289   1.543 -0.1934  0.5038  0.3323
  929TIP3   OH219358   2.480   1.908   8.942  0.0894  0.1787 -0.5949
  929TIP3    H119359   2.451   1.982   8.996  1.1040  0.8063 -0.8883
  929TIP3    H219360   2.421   1.908   8.867 -2.8103 -2.0394  1.4324
  930TIP3   OH219361   4.907   3.226   6.193  0.7448 -0.1400 -0.4115
  930TIP3    H119362   4.883   3.145   6.237  3.2362  0.5348  2.5566
  930TIP3    H219363   4.995   3.210   6.158  0.4725  0.6706 -1.5278
  931TIP3   OH219364   2.132   1.983   2.383 -0.5283  0.2845 -0.2108
  931TIP3    H119365   2.124   1.914   2.448  0.5661  1.2694  1.0435
  931TIP3    H219366   2.227   1.998   2.375 -0.7369  1.8595 -0.1797
  932TIP3   OH219367   6.313   2.477   9.271 -0.2858  0.1547 -0.2615
  932TIP3    H119368   6.366   2.556   9.258  1.8796 -1.3429 -1.2296
  932TIP3    H219369   6.282   2.455   9.183 -2.5715  0.9727  0.2860
  933TIP3   OH219370   2.699   1.304   9.104  0.0984  0.4784 -0.0151
  933TIP3    H119371   2.710   1.210   9.116 -2.0247  0.0967 -0.6560
  933TIP3    H219372   2.656   1.313   9.019 -0.6779  1.9286  0.4916
  934TIP3   OH219373   5.687   5.714   7.429  0.7174 -0.2070  0.4116
  934TIP3    H119374   5.592   5.722   7.415  0.2604 -2.2686  1.7774
  934TIP3    H219375   5.720   5.677   7.347 -0.0472 -1.4049  0.6008
  935TIP3   OH219376   2.977   1.482   7.387  0.4988 -0.1641 -0.7222
  935TIP3    H119377   2.926   1.405   7.411  0.0073  0.0030 -1.2008
  935TIP3    H219378   2.920   1.556   7.407  0.6604  0.0367 -0.9945
  936TIP3   OH219379   4.017   4.899   1.276  0.0905  0.0382  0.1312
  936TIP3    H119380   4.035   4.836   1.347  1.6662  1.0513  0.6793
  936TIP3    H219381   4.099   4.904   1.227 -0.9600 -0.6335 -1.8244
  937TIP3   OH219382   5.623   4.882   9.119 -0.6667  0.2397 -0.2667
  937TIP3    H119383   5.570   4.922   9.050  0.1819  0.4377 -0.8110
  937TIP3    H219384   5.589   4.921   9.200  0.1025  2.0735 -0.7641
  938TIP3   OH219385   5.443   3.212   1.744  0.4622  0.5457  0.5104
  938TIP3    H119386   5.482   3.278   1.801 -0.0677  1.9419 -0.6871
  938TIP3    H219387   5.390   3.262   1.682  0.4231 -0.9717 -0.7371
  939TIP3   OH219388   2.194   2.660   6.602  0.8089  0.2523  0.4798
  939TIP3    H119389   2.240   2.715   6.538 -2.0894  1.6851 -0.5551
  939TIP3    H219390   2.132   2.609   6.550  1.5601 -2.0957  1.7350
  940TIP3   OH219391   0.593   1.006   8.180 -0.2067  0.0938 -0.3833
  940TIP3    H119392   0.517   0.998   8.239 -0.5552  1.7271 -0.5772
  940TIP3    H219393   0.562   1.062   8.109  1.2615  0.9863 -0.3389
  941TIP3   OH219394   1.236   0.454   2.380  0.2462  0.5226  0.1715
  941TIP3    H119395   1.295   0.378   2.380  0.8260  0.9581 -0.2263
  941TIP3    H219396   1.155   0.421   2.418  0.9792  0.0838  1.4252
  942TIP3   OH219397   4.109   0.449   8.459 -0.4635  0.3213 -0.1964
  942TIP3    H119398   4.033   0.508   8.457  0.8899  2.1908  0.6971
  942TIP3    H219399   4.180   0.503   8.492  0.8776 -1.8384  0.6701
  943TIP3   OH219400   0.586   3.330   8.445  0.5359 -0.0392 -0.0089
  943TIP3    H119401   0.570   3.409   8.392 -0.1171  1.7408  2.6195
  943TIP3    H219402   0.680   3.317   8.442  0.7758  1.4594  0.2483
  944TIP3   OH219403   1.175   3.891   2.427 -0.2458 -0.4327  0.6219
  944TIP3    H119404   1.231   3.962   2.394 -0.3282 -1.1493 -1.1588
  944TIP3    H219405   1.236   3.820   2.447 -0.2444 -0.1589  1.6616
  945TIP3   OH219406   2.527   1.006   2.670  0.2954 -0.2269 -0.0002
  945TIP3    H119407   2.583   0.934   2.640  3.2776  1.6133  0.7469
  945TIP3    H219408   2.561   1.028   2.756 -1.5047  1.1489  0.4058
  946TIP3   OH219409   4.528   4.084   7.005 -0.0498 -0.1278 -0.3686
  946TIP3    H119410   4.492   4.057   6.920  2.2396  0.0761 -1.4634
  946TIP3    H219411   4.546   4.177   6.994 -0.5358  0.0989  0.6696
  947TIP3   OH219412   4.576   3.836   8.190  0.3576  0.0541 -0.1576
  947TIP3    H119413   4.651   3.856   8.246  0.7947  0.4402 -0.8644
  947TIP3    H219414   4.577   3.741   8.182 -0.2374 -0.0866  1.1944
  948TIP3   OH219415   1.012   0.734   1.419  0.0619 -0.1951 -0.2920
  948TIP3    H119416   1.015   0.718   1.514  0.0945 -1.1876 -0.4419
  948TIP3    H219417   1.079   0.801   1.403  0.7561 -0.7386  0.2653
  949TIP3   OH219418   0.233   5.285   8.616  0.2068 -0.1060 -0.4534
  949TIP3    H119419   0.151   5.235   8.612  0.0667 -0.0312  0.8433
  949TIP3    H219420   0.297   5.230   8.572 -0.0019 -1.3527  0.7212
  950TIP3   OH219421   0.528   4.095   6.826 -0.7959  0.1489  0.1020
  950TIP3    H119422   0.438   4.077   6.798 -0.8377  0.5286 -0.0192
  950TIP3    H219423   0.548   4.181   6.788 -0.3738  0.0544  0.1101
  951TIP3   OH219424   0.394   1.098   8.404  0.6394  0.4299  0.3081
  951TIP3    H119425   0.432   1.179   8.437 -1.3154  1.2285  0.7356
  951TIP3    H219426   0.406   1.035   8.474 -1.8860  1.6360  1.9606
  952TIP3   OH219427   0.102   5.672   6.841 -0.3841  0.1493 -0.3670
  952TIP3    H119428   0.160   5.607   6.801  1.5230  1.8344 -0.5228
  952TIP3    H219429   0.077   5.729   6.768 -2.2802 -0.5321 -0.2941
  953TIP3   OH219430   2.904   1.170   6.161 -0.5152 -0.2694 -0.1175
  953TIP3    H119431   2.983   1.156   6.109 -1.8212 -2.8238 -1.6209
  953TIP3    H219432   2.898   1.093   6.217 -1.7839  0.0022  0.1576
  954TIP3   OH219433   0.947   1.471   8.936  0.2629  0.1796 -0.0596
  954TIP3    H119434   0.958   1.381   8.966 -0.1504  0.1322 -0.0376
  954TIP3    H219435   0.952   1.465   8.840 -0.2954  0.0501 -0.0850
  955TIP3   OH219436   4.288   3.083   1.516 -0.1453  0.3429 -0.5028
  955TIP3    H119437   4.305   2.990   1.522 -1.3360  0.1224 -0.2130
  955TIP3    H219438   4.338   3.122   1.587 -0.1941 -0.1593 -0.1938
  956TIP3   OH219439   0.223   5.976   6.639  0.6376  0.6045  0.3743
  956TIP3    H119440   0.211   6.052   6.582  1.4395 -0.7899 -1.7681
  956TIP3    H219441   0.135   5.943   6.653  0.4769  0.4520 -0.8468
  957TIP3   OH219442   3.505   4.690   2.424  0.0371 -0.5894  0.3232
  957TIP3    H119443   3.425   4.740   2.409  0.5663  0.7415  1.6938
  957TIP3    H219444   3.541   4.726   2.505  1.5236 -1.8235  0.2554
  958TIP3   OH219445   3.140   4.770   8.743  0.1490 -0.1467 -0.4498
  958TIP3    H119446   3.191   4.736   8.817  1.5703 -0.1151 -1.3860
  958TIP3    H219447   3.105   4.853   8.774 -1.4008 -1.2628  1.0473
  959TIP3   OH219448   4.908   0.876   8.622  0.5399  0.3330 -0.1850
  959TIP3    H119449   4.870   0.955   8.583 -2.4699 -0.1787  1.3752
  959TIP3    H219450   4.951   0.907   8.701 -1.8902  0.3802  1.2115
  960TIP3   OH219451   3.739   4.257   2.822 -0.0174 -0.1489  0.1045
  960TIP3    H119452   3.760   4.347   2.795 -0.2384 -0.1866 -0.2073
  960TIP3    H219453   3.796   4.240   2.897 -0.1221  0.3267  0.2984
  961TIP3   OH219454   3.140   5.579   8.989  0.0282  0.2733 -0.1523
  961TIP3    H119455   3.161   5.591   9.081  0.7937 -2.0725  0.0563
  961TIP3    H219456   3.217   5.611   8.942 -0.0842  0.8429  0.0473
  962TIP3   OH219457   1.874   5.812   1.675  0.3636  0.3723  0.1246
  962TIP3    H119458   1.953   5.864   1.685 -0.1701  1.5481 -1.2651
  962TIP3    H219459   1.903   5.721   1.678  1.4772  0.7572  1.5117
  963TIP3   OH219460   1.487   3.743   8.670  0.0453 -0.6077 -0.2534
  963TIP3    H119461   1.581   3.728   8.674  0.5116  1.7869 -0.8381
  963TIP3    H219462   1.467   3.794   8.749 -0.2313  1.1800 -1.4204
  964TIP3   OH219463   6.325   1.190   7.331 -0.2736  0.0279  0.0322
  964TIP3    H119464   6.403   1.138   7.309 -0.3248  0.1080 -0.3351
  964TIP3    H219465   6.351   1.240   7.409 -0.0133 -0.0732  0.0114
  965TIP3   OH219466   5.920   0.977   1.406  0.3224 -0.1319  0.4713
  965TIP3    H119467   5.897   0.903   1.351 -1.6062  0.7297  0.0028
  965TIP3    H219468   6.001   0.951   1.450  1.6718 -1.0350 -2.3681
  966TIP3   OH219469   3.624   6.338   1.721 -0.1954  0.2129 -0.3173
  966TIP3    H119470   3.718   6.336   1.736 -0.3067  0.4789  0.4329
  966TIP3    H219471   3.588   6.382   1.798 -0.9169  0.2632 -0.6768
  967TIP3   OH219472   2.166   1.450   0.180  0.0055 -0.1763  0.5988
  967TIP3    H119473   2.200   1.534   0.150  0.8116 -0.5163  0.5425
  967TIP3    H219474   2.120   1.470   0.262 -0.3235  0.4062  0.2735
  968TIP3   OH219475   3.351   0.232   8.203 -0.0590 -0.1738 -0.2538
  968TIP3    H119476   3.385   0.145   8.184  1.2823  0.6814 -2.1498
  968TIP3    H219477   3.415   0.271   8.262  0.3627  0.1718 -0.9281
  969TIP3   OH219478   4.777   3.915   6.626 -0.0775 -0.2805 -0.0910
  969TIP3    H119479   4.804   3.990   6.680 -2.0744 -0.0749  0.6853
  969TIP3    H219480   4.849   3.853   6.635  1.6239  1.4825 -0.7178
  970TIP3   OH219481   0.618   1.394   7.407  1.1237  0.0819 -0.2689
  970TIP3    H119482   0.610   1.344   7.489 -0.2895  0.7662  0.0425
  970TIP3    H219483   0.555   1.465   7.417  0.6970 -0.0091 -2.1043
  971TIP3   OH219484   0.769   5.700   8.618  0.7415 -0.1044  0.2595
  971TIP3    H119485   0.792   5.669   8.530 -0.1529  0.2294 -0.1003
  971TIP3    H219486   0.809   5.636   8.677  1.2534 -0.3967 -0.3851
  972TIP3   OH219487   4.822   1.386   2.987 -0.2375  0.4493  0.1618
  972TIP3    H119488   4.800   1.296   2.963  0.8728 -0.0898  1.0491
  972TIP3    H219489   4.917   1.393   2.971 -0.1852  1.2403  0.7387
  973TIP3   OH219490   4.600   2.753   9.210  0.1415  0.1652  0.0734
  973TIP3    H119491   4.617   2.670   9.254 -0.9297 -0.7342 -1.1442
  973TIP3    H219492   4.659   2.815   9.252  1.3243 -1.3152  0.6774
  974TIP3   OH219493   3.504   4.523   1.243 -0.6077  0.0382  0.1817
  974TIP3    H119494   3.468   4.453   1.298  1.2103 -0.0225  1.3786
  974TIP3    H219495   3.598   4.505   1.240 -0.1768  2.0699  0.0026
  975TIP3   OH219496   2.709   4.664   2.042 -0.0625 -1.0929 -0.0320
  975TIP3    H119497   2.692   4.575   2.070  0.3862 -0.4499  2.5323
  975TIP3    H219498   2.803   4.665   2.021 -0.3463 -1.5104 -1.4439
  976TIP3   OH219499   1.508   0.335   2.352 -0.1132  0.5057 -0.1516
  976TIP3    H119500   1.546   0.366   2.269  1.7130  1.0418  0.8274
  976TIP3    H219501   1.573   0.273   2.385  1.3517  3.3334  2.8285
  977TIP3   OH219502   6.084   5.785   0.232  0.0258 -0.0909  0.2145
  977TIP3    H119503   6.081   5.841   0.155 -0.3625  1.5490  1.3588
  977TIP3    H219504   5.992   5.763   0.250  0.0075  0.4070  0.7840
  978TIP3   OH219505   5.135   6.357   8.823  0.0387 -0.3056 -0.3315
  978TIP3    H119506   5.100   6.380   8.737 -2.4997 -1.1661  0.3777
  978TIP3    H219507   5.178   6.437   8.854  0.1863  0.2967 -1.9891
  979TIP3   OH219508   4.252   5.529   0.291 -0.0013 -0.0792 -0.1568
  979TIP3    H119509   4.248   5.559   0.200 -0.7385 -0.3588 -0.2315
  979TIP3    H219510   4.191   5.587   0.337  0.0026 -0.2528  0.0644
  980TIP3   OH219511   2.188   1.326   0.588 -0.2411 -0.3591 -0.3790
  980TIP3    H119512   2.168   1.399   0.529  0.4779 -0.7369 -1.1122
  980TIP3    H219513   2.170   1.360   0.675 -0.1731  0.6037 -0.7300
  981TIP3   OH219514   5.547   4.508   8.738 -0.0545  0.2294  0.0935
  981TIP3    H119515   5.548   4.562   8.816 -1.0424 -0.2084  0.4183
  981TIP3    H219516   5.471   4.538   8.688  0.1881  0.0678 -0.3828
  982TIP3   OH219517   4.583   3.938   7.586 -0.1020 -0.5065  0.1646
  982TIP3    H119518   4.669   3.924   7.546 -0.4577 -2.3251 -0.0384
  982TIP3    H219519   4.601   3.991   7.664  1.0819 -0.1624 -0.3158
  983TIP3   OH219520   3.719   4.960   1.301  0.2289 -0.1572 -0.0777
  983TIP3    H119521   3.718   4.980   1.395 -1.4278 -1.9222  0.3378
  983TIP3    H219522   3.804   4.994   1.270  0.6295  0.8315  1.9442
  984TIP3   OH219523   6.162   3.578   1.987 -0.1395  0.0396  0.1413
  984TIP3    H119524   6.093   3.534   2.037 -1.2536  0.9236 -0.5852
  984TIP3    H219525   6.229   3.599   2.053 -0.8313 -0.2626  0.9674
  985TIP3   OH219526   2.782   1.995   7.681  0.0152 -0.0346 -0.3170
  985TIP3    H119527   2.835   2.070   7.706 -1.6084  1.1856 -0.4047
  985TIP3    H219528   2.739   2.022   7.600 -1.8822 -0.3684  0.5208
  986TIP3   OH219529   3.614   0.501   2.476  0.1392  0.0241 -0.7679
  986TIP3    H119530   3.553   0.434   2.446  0.2993  0.5011 -2.2485
  986TIP3    H219531   3.640   0.473   2.563  0.9332 -2.3723 -1.6930
  987TIP3   OH219532   2.242   0.868   0.830  0.4363 -0.2368 -0.0213
  987TIP3    H119533   2.305   0.809   0.790 -0.6418 -0.5363 -1.3549
  987TIP3    H219534   2.278   0.956   0.816 -0.0199 -0.3184 -1.9141
  988TIP3   OH219535   5.859   2.238   7.446  0.3815 -0.2087  0.5209
  988TIP3    H119536   5.782   2.191   7.414 -0.8998  1.3147  1.2239
  988TIP3    H219537   5.890   2.184   7.519  0.6998 -1.4221 -0.4669
  989TIP3   OH219538   0.828   5.015   7.819 -0.2475 -0.3058  0.3729
  989TIP3    H119539   0.917   5.038   7.795 -0.4117  1.4481  1.3126
  989TIP3    H219540   0.837   4.939   7.876  0.6155 -0.2387  0.3325
  990TIP3   OH219541   3.792   1.490   7.357  0.2829  0.1549 -0.6903
  990TIP3    H119542   3.884   1.467   7.373  0.6088  1.1209 -1.0863
  990TIP3    H219543   3.795   1.581   7.325 -0.7996  0.1596 -0.8240
  991TIP3   OH219544   4.010   2.965   2.822  0.3356  0.3448  0.6345
  991TIP3    H119545   4.091   2.997   2.782 -0.8858  1.1072 -1.3786
  991TIP3    H219546   4.028   2.966   2.916  3.0459 -0.6763  0.2257
  992TIP3   OH219547   1.888   1.481   1.205  0.2605  0.2809 -0.4388
  992TIP3    H119548   1.909   1.573   1.186 -1.3071  0.4506 -1.5313
  992TIP3    H219549   1.886   1.476   1.301  1.5998  1.0635 -0.3448
  993TIP3   OH219550   3.096   3.719   6.593 -0.3370  0.8454  0.3131
  993TIP3    H119551   3.095   3.814   6.579  0.0005  0.7678 -0.2906
  993TIP3    H219552   3.188   3.699   6.612 -0.2396  0.5255 -0.4623
  994TIP3   OH219553   4.784   2.543   1.366 -0.0664 -0.0039 -0.1502
  994TIP3    H119554   4.825   2.620   1.328  1.0978  0.1438  1.2813
  994TIP3    H219555   4.850   2.474   1.359  0.4722  0.2033  2.0981
  995TIP3   OH219556   1.619   1.225   8.068 -0.1799 -0.1271 -0.2194
  995TIP3    H119557   1.568   1.266   7.999 -0.4750 -2.3845 -1.4431
  995TIP3    H219558   1.710   1.228   8.037 -0.3048 -1.0849 -0.7204
  996TIP3   OH219559   0.501   5.665   8.507 -1.0469 -0.2087  0.1890
  996TIP3    H119560   0.577   5.655   8.565 -1.6448 -0.0445  1.0192
  996TIP3    H219561   0.517   5.602   8.436 -0.7731 -1.1328  1.0469
  997TIP3   OH219562   3.238   6.410   0.713  0.3162  0.4591 -0.2531
  997TIP3    H119563   3.277   6.457   0.639  2.8358 -0.5641  0.3220
  997TIP3    H219564   3.261   6.318   0.697 -2.9999 -0.4546 -0.4542
  998TIP3   OH219565   1.912   1.612   0.844  0.1778  0.2257  0.0692
  998TIP3    H119566   1.892   1.652   0.929 -1.5132 -0.4581  0.0377
  998TIP3    H219567   1.845   1.646   0.785  0.4336 -0.4617 -0.6334
  999TIP3   OH219568   1.630   0.725   0.309  0.3364  0.0420 -0.2959
  999TIP3    H119569   1.563   0.738   0.242 -0.6681  3.3296  1.1595
  999TIP3    H219570   1.708   0.766   0.273  0.6516 -0.8428 -0.6372
 1000TIP3   OH219571   0.649   0.489   7.603 -0.5147  0.0497  0.4016
 1000TIP3    H119572   0.634   0.552   7.534  0.6631  0.0098  0.0851
 1000TIP3    H219573   0.744   0.482   7.609 -0.5518 -2.9339 -0.7528
 1001TIP3   OH219574   3.818   0.552   1.825  0.1141 -0.6118  0.1353
 1001TIP3    H119575   3.814   0.576   1.733 -0.3626  0.3582  0.3913
 1001TIP3    H219576   3.820   0.456   1.826 -1.6559 -0.6914 -0.8214
 1002TIP3   OH219577   2.211   6.300   2.274  0.4227 -0.1658 -0.5846
 1002TIP3    H119578   2.243   6.366   2.212  3.0853 -0.1060  0.6831
 1002TIP3    H219579   2.231   6.217   2.231  2.1813 -0.1241  0.0523
 1003TIP3   OH219580   4.012   1.722   8.236  0.5637 -0.7207  0.0269
 1003TIP3    H119581   4.031   1.629   8.223 -0.3689 -1.2293  1.9476
 1003TIP3    H219582   4.091   1.756   8.279  0.6105 -0.8155  0.0169
 1004TIP3   OH219583   3.987   4.395   8.832 -0.0419  0.4859  0.5287
 1004TIP3    H119584   4.064   4.366   8.783 -0.0691 -0.3373  0.9485
 1004TIP3    H219585   3.972   4.485   8.803  0.0321  0.0779 -0.8401
 1005TIP3   OH219586   2.419   2.354   2.415 -0.2664  0.6853 -0.2852
 1005TIP3    H119587   2.334   2.320   2.388  0.9458 -3.2196  0.1005
 1005TIP3    H219588   2.472   2.356   2.335  0.0353  0.4181 -0.0972
 1006TIP3   OH219589   2.625   0.121   6.241  0.2009  0.4999 -0.5027
 1006TIP3    H119590   2.704   0.110   6.294  0.1710 -0.5749 -0.6617
 1006TIP3    H219591   2.654   0.107   6.151 -0.0490  0.7860 -0.6310
 1007TIP3   OH219592   2.885   3.429   6.844 -0.3406  0.5463  0.1508
 1007TIP3    H119593   2.910   3.464   6.758 -1.9096  0.7756 -0.2289
 1007TIP3    H219594   2.916   3.339   6.843  0.8219  0.9272 -0.1280
 1008TIP3   OH219595   0.917   4.438   0.822 -0.1803 -0.3960 -0.1113
 1008TIP3    H119596   0.866   4.438   0.742 -0.5483  2.1105  0.0474
 1008TIP3    H219597   0.910   4.528   0.856  1.5219 -0.8642  1.7150
 1009TIP3   OH219598   5.902   1.392   0.390  0.0043 -0.6525 -0.5029
 1009TIP3    H119599   5.946   1.395   0.305 -0.5852 -0.0984 -0.7935
 1009TIP3    H219600   5.974   1.390   0.453  0.4704  0.8984 -0.9396
 1010TIP3   OH219601   0.843   4.494   0.573 -0.5211  0.0846 -0.2406
 1010TIP3    H119602   0.862   4.444   0.494 -1.5235  1.0786 -1.1297
 1010TIP3    H219603   0.769   4.550   0.550 -0.4539  0.8320  1.2172
 1011TIP3   OH219604   2.744   3.136   8.232 -0.1715 -0.7654  0.3736
 1011TIP3    H119605   2.731   3.182   8.149  0.7902  1.2257  1.2410
 1011TIP3    H219606   2.779   3.051   8.208 -0.3813 -0.4192 -1.2692
 1012TIP3   OH219607   1.183   2.537   0.411  0.3435 -0.1714  0.0269
 1012TIP3    H119608   1.170   2.443   0.427 -0.8123  0.0028  0.1531
 1012TIP3    H219609   1.125   2.557   0.338  1.7528  0.1400 -1.0722
 1013TIP3   OH219610   0.872   5.434   8.623 -1.1551 -0.3240 -0.4392
 1013TIP3    H119611   0.900   5.351   8.584 -1.1616  0.7184 -2.8408
 1013TIP3    H219612   0.780   5.421   8.644 -1.4258 -0.6169 -1.7644
 1014TIP3   OH219613   5.536   5.500   1.400  0.3891 -0.0468 -0.4494
 1014TIP3    H119614   5.631   5.490   1.389  0.4594 -0.3791  0.3719
 1014TIP3    H219615   5.506   5.539   1.318  1.6469  2.8281  0.3095
 1015TIP3   OH219616   2.743   2.738   8.721  0.2423  1.2850  0.2441
 1015TIP3    H119617   2.757   2.829   8.748 -1.4576  1.8336 -0.5952
 1015TIP3    H219618   2.649   2.732   8.703  0.0113 -1.0921  1.8088
 1016TIP3   OH219619   0.591   3.960   7.782 -0.1917 -0.1935  0.3715
 1016TIP3    H119620   0.532   3.928   7.714 -0.4804 -0.8946  0.9269
 1016TIP3    H219621   0.598   3.886   7.843 -0.0155  0.4502  1.1451
 1017TIP3   OH219622   1.658   0.449   2.150  0.6298  1.1370  0.3896
 1017TIP3    H119623   1.731   0.389   2.131  0.4349  0.2952  2.0679
 1017TIP3    H219624   1.697   0.536   2.151  1.3017  0.8497 -0.2490
 1018TIP3   OH219625   5.440   5.075   7.571 -0.2640  0.9118  0.0518
 1018TIP3    H119626   5.432   5.145   7.635  1.5479  0.9225  0.3202
 1018TIP3    H219627   5.534   5.066   7.557 -0.2614 -2.5410  1.2729
 1019TIP3   OH219628   4.200   0.754   8.650  0.6714 -0.6168  0.0411
 1019TIP3    H119629   4.199   0.837   8.601 -0.9344 -0.6148  0.0092
 1019TIP3    H219630   4.270   0.704   8.610  1.7512  0.7572  0.1228
 1020TIP3   OH219631   2.849   4.357   7.017 -0.0888  0.2811 -0.3323
 1020TIP3    H119632   2.924   4.414   7.038 -0.4428  0.3545  0.8470
 1020TIP3    H219633   2.888   4.281   6.974  1.4265 -1.9704  4.3124
 1021TIP3   OH219634   4.471   6.401   0.169  0.2171 -0.2416  0.2467
 1021TIP3    H119635   4.406   6.355   0.222  1.3255 -0.4219  1.5084
 1021TIP3    H219636   4.527   6.332   0.133  0.4606 -0.0194  0.1936
 1022TIP3   OH219637   3.229   6.297   7.733 -0.6213  0.8811 -0.2622
 1022TIP3    H119638   3.285   6.371   7.707  0.8535 -0.5204 -1.2845
 1022TIP3    H219639   3.235   6.296   7.829  1.1855  0.7867 -0.3291
 1023TIP3   OH219640   3.877   1.813   7.462 -0.3975  0.2990 -0.3710
 1023TIP3    H119641   3.917   1.792   7.378  0.9828  0.8797  0.1136
 1023TIP3    H219642   3.792   1.852   7.439 -0.4248 -0.3635 -1.4500
 1024TIP3   OH219643   4.152   5.915   8.602 -0.2892 -0.1881  0.6578
 1024TIP3    H119644   4.204   5.988   8.570 -2.3206  1.0527  0.0637
 1024TIP3    H219645   4.109   5.948   8.681 -3.0264  0.1266 -0.8508
 1025TIP3   OH219646   4.218   5.853   8.297  0.0068  0.6103 -0.5795
 1025TIP3    H119647   4.230   5.929   8.241  0.0054  0.4539 -0.7939
 1025TIP3    H219648   4.124   5.840   8.300  0.0681 -0.1844 -1.6279
 1026TIP3   OH219649   5.375   1.155   8.384  0.1224  0.6779  0.5706
 1026TIP3    H119650   5.365   1.229   8.444  0.7469  2.4978 -1.4513
 1026TIP3    H219651   5.469   1.148   8.369 -0.1112  1.6260 -1.7268
 1027TIP3   OH219652   2.412   0.289   6.852  0.2287 -0.2501  0.0634
 1027TIP3    H119653   2.444   0.374   6.881  1.2673 -0.2460 -1.0016
 1027TIP3    H219654   2.477   0.226   6.885  0.9739 -0.3270 -1.4407
 1028TIP3   OH219655   5.783   4.665   9.347  0.2568  0.5800  0.5648
 1028TIP3    H119656   5.696   4.629   9.330  1.3012 -1.4754 -0.8406
 1028TIP3    H219657   5.767   4.758   9.363 -2.0195  0.7011 -1.6669
 1029TIP3   OH219658   2.385   5.068   2.818  0.2291  0.0144  0.0004
 1029TIP3    H119659   2.309   5.043   2.766  0.1078 -1.9432  1.0528
 1029TIP3    H219660   2.396   5.162   2.800 -3.1778  0.7060  0.7538
 1030TIP3   OH219661   1.141   3.030   0.107 -0.0933  0.1665 -0.0386
 1030TIP3    H119662   1.224   2.985   0.092  0.5094  0.9545  0.7900
 1030TIP3    H219663   1.165   3.107   0.159 -1.1253  1.2313 -1.0600
 1031TIP3   OH219664   6.383   5.019   7.495  0.4723  0.8417  0.2686
 1031TIP3    H119665   6.371   5.039   7.403  1.0032 -0.4383 -0.1003
 1031TIP3    H219666   6.403   5.103   7.536 -2.5858  1.9565 -0.2517
 1032TIP3   OH219667   2.069   5.940   1.853  0.6000  0.4968 -0.0309
 1032TIP3    H119668   2.067   5.992   1.772  0.8264  1.0156  0.2947
 1032TIP3    H219669   2.079   6.005   1.923 -1.3937  0.2205  0.5694
 1033TIP3   OH219670   2.767   5.656   1.361  0.2559 -0.0172 -0.1275
 1033TIP3    H119671   2.712   5.722   1.318  1.9290  0.5523 -1.5242
 1033TIP3    H219672   2.710   5.580   1.372 -0.7161  0.4169 -1.8632
 1034TIP3   OH219673   2.044   4.703   1.898  0.6202  0.5664 -0.2424
 1034TIP3    H119674   2.101   4.687   1.973  2.2321 -0.3074 -1.5930
 1034TIP3    H219675   1.965   4.652   1.917 -0.1758  2.4654  2.0571
 1035TIP3   OH219676   1.216   0.492   0.854 -0.0295  0.1534 -0.2112
 1035TIP3    H119677   1.150   0.511   0.920  0.0765 -2.1414  0.6569
 1035TIP3    H219678   1.198   0.402   0.827  1.3532  0.2525 -1.6294
 1036TIP3   OH219679   1.311   3.150   7.217  0.2501 -0.8987 -0.2601
 1036TIP3    H119680   1.218   3.135   7.197  0.0080 -0.7455  0.6939
 1036TIP3    H219681   1.354   3.146   7.132 -0.8021  0.2896 -0.8820
 1037TIP3   OH219682   6.132   0.322   0.463  0.3521 -0.4614  0.0709
 1037TIP3    H119683   6.106   0.366   0.543  2.0695 -1.4701  1.2520
 1037TIP3    H219684   6.203   0.263   0.489  2.2672  0.5018 -2.4891
 1038TIP3   OH219685   5.960   2.942   8.236  0.2233 -0.4802  0.1824
 1038TIP3    H119686   6.054   2.924   8.234  0.1871 -1.1955  2.2277
 1038TIP3    H219687   5.922   2.862   8.271 -1.2129 -0.3464 -1.0185
 1039TIP3   OH219688   1.256   0.370   7.098 -0.2832 -0.2736 -0.0377
 1039TIP3    H119689   1.203   0.293   7.121 -1.1970 -0.2332 -1.7992
 1039TIP3    H219690   1.308   0.341   7.023 -2.5717  1.4433 -2.5055
 1040TIP3   OH219691   2.676   2.590   8.162  0.4315  0.3146 -0.6778
 1040TIP3    H119692   2.742   2.627   8.104  0.6170  1.2163  0.1011
 1040TIP3    H219693   2.714   2.596   8.249  0.2022 -1.1316 -0.4522
 1041TIP3   OH219694   0.410   0.500   0.916 -0.6311 -0.4388 -0.1731
 1041TIP3    H119695   0.420   0.496   0.821  0.3238 -0.7840 -0.0693
 1041TIP3    H219696   0.499   0.512   0.949 -1.0256  0.2643  0.6528
 1042TIP3   OH219697   5.683   3.030   0.279 -0.6833  0.1806 -0.1541
 1042TIP3    H119698   5.662   3.067   0.364  0.0761  0.2418  0.0118
 1042TIP3    H219699   5.599   3.027   0.232 -0.6084  3.4431 -0.7281
 1043TIP3   OH219700   6.377   2.701   8.045 -0.5808 -0.0229 -0.1791
 1043TIP3    H119701   6.319   2.722   8.118  0.5319 -0.7188  0.9463
 1043TIP3    H219702   6.402   2.785   8.008 -0.7046  0.3691  0.6200
 1044TIP3   OH219703   2.180   2.132   8.820  0.4790  1.0195 -0.7154
 1044TIP3    H119704   2.188   2.221   8.784  1.3605  1.0815 -0.3977
 1044TIP3    H219705   2.243   2.080   8.769  0.0708  0.6034 -0.8021
 1045TIP3   OH219706   2.856   0.735   2.352  0.6112  0.2776 -0.0211
 1045TIP3    H119707   2.843   0.825   2.382 -1.0077  0.7788 -1.9984
 1045TIP3    H219708   2.770   0.708   2.319  1.3447 -1.5749 -0.5512
 1046TIP3   OH219709   3.235   2.286   7.144  0.5832  0.1558 -0.0127
 1046TIP3    H119710   3.217   2.193   7.151  2.4644 -0.2107  0.7144
 1046TIP3    H219711   3.149   2.328   7.146 -0.2355 -1.4605  1.4574
 1047TIP3   OH219712   4.665   6.325   0.525 -0.1998  0.2453 -0.2557
 1047TIP3    H119713   4.758   6.306   0.542 -0.5682 -0.4787  0.9977
 1047TIP3    H219714   4.653   6.299   0.433  1.1074  1.4726 -0.8271
 1048TIP3   OH219715   6.138   4.975   1.030  0.0748 -0.4693 -0.1965
 1048TIP3    H119716   6.129   4.941   1.119  0.1814 -0.6585 -0.2570
 1048TIP3    H219717   6.061   4.940   0.984  1.0768 -2.1104 -0.7218
 1049TIP3   OH219718   4.135   2.833   7.584  0.5640 -0.1894 -0.1783
 1049TIP3    H119719   4.158   2.761   7.525  2.0297  1.4284 -1.7052
 1049TIP3    H219720   4.179   2.811   7.666  1.8430 -0.5952 -0.9363
 1050TIP3   OH219721   6.329   4.178   0.963 -0.8411  0.7083 -0.1367
 1050TIP3    H119722   6.288   4.170   0.877 -0.7623  0.8293 -0.1855
 1050TIP3    H219723   6.289   4.109   1.015  1.0726 -1.1693 -1.0279
 1051TIP3   OH219724   1.514   4.753   1.510  0.9423  0.1098  0.3178
 1051TIP3    H119725   1.434   4.748   1.563  0.9666  1.9725  0.5940
 1051TIP3    H219726   1.500   4.690   1.440 -1.2069  1.0121 -0.1655
 1052TIP3   OH219727   1.476   1.759   2.511 -0.4397 -0.0905  0.1774
 1052TIP3    H119728   1.397   1.736   2.560 -0.0543 -0.1070  0.8041
 1052TIP3    H219729   1.498   1.847   2.541  0.6962 -0.7101  1.2385
 1053TIP3   OH219730   0.021   5.014   8.651 -0.3583  0.4725  0.1225
 1053TIP3    H119731  -0.052   4.983   8.704  0.2818 -1.1283  0.1355
 1053TIP3    H219732   0.042   4.940   8.594  1.3537  0.8125  0.2585
 1054TIP3   OH219733   2.243   0.927   7.073 -0.2202  0.0013  0.3555
 1054TIP3    H119734   2.267   0.926   7.166 -0.5244  2.6854  0.5349
 1054TIP3    H219735   2.326   0.945   7.028 -0.4312  0.9389  0.3177
 1055TIP3   OH219736   3.193   1.122   6.356  0.4473 -0.0526  0.3183
 1055TIP3    H119737   3.166   1.051   6.413 -0.3389 -0.4281 -0.4982
 1055TIP3    H219738   3.214   1.194   6.415  0.3788 -0.6727  1.1064
 1056TIP3   OH219739   3.399   3.067   0.940  0.0158 -0.3614 -0.0574
 1056TIP3    H119740   3.336   3.047   0.870 -0.2684 -3.2529  0.8844
 1056TIP3    H219741   3.479   3.090   0.894 -1.0837  1.2789 -1.2883
 1057TIP3   OH219742   0.618   3.050   2.261  0.4226  0.5351 -0.3026
 1057TIP3    H119743   0.634   3.050   2.356  0.4482 -0.2904 -0.2981
 1057TIP3    H219744   0.631   2.959   2.235  1.6580  0.9795 -1.3298
 1058TIP3   OH219745   2.763   5.696   8.786 -0.2293  0.2316 -0.4482
 1058TIP3    H119746   2.835   5.740   8.832 -0.7465 -1.2491  1.9643
 1058TIP3    H219747   2.799   5.611   8.761 -1.0900 -0.5143  0.7628
 1059TIP3   OH219748   0.420   2.872   8.131  0.2120 -0.2901  0.1476
 1059TIP3    H119749   0.338   2.850   8.176 -0.0910 -0.8467 -0.6366
 1059TIP3    H219750   0.456   2.945   8.181 -0.5384 -0.3280  0.7736
 1060TIP3   OH219751   1.310   2.167   7.821 -0.0271 -0.9006 -0.1033
 1060TIP3    H119752   1.370   2.232   7.858 -2.2400  0.0765  1.9855
 1060TIP3    H219753   1.334   2.163   7.728  2.5407  0.1949  0.4328
 1061TIP3   OH219754   2.387   5.974   7.513  0.3119 -0.0307 -0.3995
 1061TIP3    H119755   2.409   5.963   7.606 -0.7264 -0.3144 -0.1666
 1061TIP3    H219756   2.362   6.066   7.505  3.3338  0.8273 -1.0849
 1062TIP3   OH219757   2.168   3.330   7.617 -0.0677 -0.0189  0.0528
 1062TIP3    H119758   2.123   3.246   7.626 -0.2786 -0.1682 -1.9565
 1062TIP3    H219759   2.259   3.311   7.638 -0.6548  0.0419  3.0479
 1063TIP3   OH219760   3.408   0.237   9.435  0.0650 -0.0943  0.0695
 1063TIP3    H119761   3.345   0.166   9.439  0.1203 -0.1218  0.6810
 1063TIP3    H219762   3.388   0.284   9.355  0.2486 -1.0030 -0.5199
 1064TIP3   OH219763   1.058   5.583   8.779 -0.1797 -0.0349 -0.5106
 1064TIP3    H119764   1.004   5.550   8.707 -0.2713 -0.5344 -0.2125
 1064TIP3    H219765   1.047   5.678   8.775 -0.3639 -0.0735 -1.0127
 1065TIP3   OH219766   0.124   4.676   2.199 -0.3742  0.3752  0.4934
 1065TIP3    H119767   0.092   4.647   2.114  0.5904 -1.4492  0.7155
 1065TIP3    H219768   0.086   4.763   2.210 -2.4546 -0.3062 -0.7298
 1066TIP3   OH219769   3.354   5.345   2.555  0.3774 -0.4678 -0.1381
 1066TIP3    H119770   3.436   5.339   2.605 -0.3381 -1.4235  0.9729
 1066TIP3    H219771   3.289   5.301   2.610 -0.9891  0.6428 -0.8096
 1067TIP3   OH219772   0.780   4.197   7.481 -0.4834 -0.4951  0.2827
 1067TIP3    H119773   0.748   4.108   7.491 -0.0015 -0.7773 -0.6088
 1067TIP3    H219774   0.702   4.249   7.462 -0.9242 -0.5212  1.8985
 1068TIP3   OH219775   1.828   3.714   2.740  0.0809 -0.5211  0.4094
 1068TIP3    H119776   1.748   3.662   2.733  0.0545 -0.3323 -0.9494
 1068TIP3    H219777   1.899   3.651   2.737  0.0840 -0.4864 -2.1856
 1069TIP3   OH219778   4.779   6.169   2.529  0.0859 -0.0324 -0.4189
 1069TIP3    H119779   4.818   6.100   2.582  0.0505  0.1855 -0.1058
 1069TIP3    H219780   4.779   6.134   2.440  1.5855  0.2154 -0.5388
 1070TIP3   OH219781   4.563   3.023   8.235  0.4608 -0.4917 -0.1256
 1070TIP3    H119782   4.652   3.048   8.264  0.6143 -0.2079 -0.8310
 1070TIP3    H219783   4.545   3.081   8.161  0.1058 -1.2733 -0.6630
 1071TIP3   OH219784   3.860   5.957   1.416  0.3024  0.5766 -0.1257
 1071TIP3    H119785   3.865   5.875   1.368  0.2393  0.1418  0.5902
 1071TIP3    H219786   3.922   6.015   1.372  0.6179  0.0260 -0.4146
 1072TIP3   OH219787   4.319   2.836   0.912  0.0524  0.5473  0.0578
 1072TIP3    H119788   4.256   2.850   0.983 -0.0499 -0.3281  0.1447
 1072TIP3    H219789   4.404   2.853   0.952 -0.1038  1.7660 -0.0667
 1073TIP3   OH219790   0.777   0.268   8.500 -0.0336 -0.1407  0.2166
 1073TIP3    H119791   0.755   0.175   8.512 -0.5574 -0.1089 -0.4387
 1073TIP3    H219792   0.696   0.314   8.520 -0.0514  0.1040 -0.3872
 1074TIP3   OH219793   6.293   5.591   1.031 -0.1066 -0.0604  0.0264
 1074TIP3    H119794   6.354   5.538   0.979 -0.5484 -1.1198  0.5694
 1074TIP3    H219795   6.213   5.592   0.979 -0.7613 -1.6616  0.9312
 1075TIP3   OH219796   4.802   1.761   8.015 -0.6176  0.6789 -0.2839
 1075TIP3    H119797   4.717   1.733   7.981 -0.8029  2.0467 -1.0298
 1075TIP3    H219798   4.849   1.792   7.938  1.8131 -2.9037 -0.4311
 1076TIP3   OH219799   0.258   2.303   8.331  0.3258 -0.4957  0.8662
 1076TIP3    H119800   0.252   2.269   8.241  1.5764  0.6497  0.3103
 1076TIP3    H219801   0.243   2.397   8.322 -0.0986 -0.4456  1.9476
 1077TIP3   OH219802   0.671   5.205   7.768 -0.4868  0.7611 -0.1394
 1077TIP3    H119803   0.739   5.141   7.787 -0.7412  0.6130  0.2649
 1077TIP3    H219804   0.592   5.171   7.809 -1.1569  0.2339 -1.7664
 1078TIP3   OH219805   5.311   3.294   2.182 -0.3123 -0.3860 -0.8146
 1078TIP3    H119806   5.230   3.276   2.133 -0.2110 -0.0929 -1.0902
 1078TIP3    H219807   5.324   3.388   2.174 -0.4224 -0.2927 -0.0152
 1079TIP3   OH219808   3.202   0.490   8.280 -0.0399  0.0586 -0.3828
 1079TIP3    H119809   3.275   0.543   8.310 -0.5044  0.4472  0.0751
 1079TIP3    H219810   3.243   0.420   8.229  0.5224  1.3132 -1.7214
 1080TIP3   OH219811   0.187   6.398   8.853 -0.1411 -0.3452 -0.5240
 1080TIP3    H119812   0.239   6.355   8.785  0.3738 -2.2732  0.9781
 1080TIP3    H219813   0.096   6.375   8.832 -0.3098  1.5990 -2.1880
 1081TIP3   OH219814   5.889   3.160   1.732  0.2878 -0.0934 -0.0789
 1081TIP3    H119815   5.805   3.134   1.769 -1.3372  1.1122 -2.6796
 1081TIP3    H219816   5.908   3.245   1.772 -0.0198 -0.0883  0.0547
 1082TIP3   OH219817   5.142   5.945   7.776 -0.3207 -0.0626  0.0470
 1082TIP3    H119818   5.152   5.971   7.684 -1.0739 -0.9616 -0.3107
 1082TIP3    H219819   5.228   5.909   7.800 -0.4420 -0.8845 -0.6747
 1083TIP3   OH219820   4.559   2.381   0.721 -0.2448  0.4655 -0.3549
 1083TIP3    H119821   4.578   2.471   0.744  0.5810 -0.1231  1.4746
 1083TIP3    H219822   4.520   2.343   0.800 -1.9710 -0.4155 -1.5535
 1084TIP3   OH219823   2.668   4.002   7.489 -0.7949 -0.1875 -0.3915
 1084TIP3    H119824   2.616   4.034   7.562  1.2291  0.9656  0.6324
 1084TIP3    H219825   2.666   3.906   7.499 -1.6576 -0.1067  0.3506
 1085TIP3   OH219826   1.759   3.254   2.166 -0.1369  0.0535  0.0677
 1085TIP3    H119827   1.829   3.200   2.130 -0.2303 -0.6268  0.8909
 1085TIP3    H219828   1.723   3.300   2.090  1.1683  0.3871 -0.3663
 1086TIP3   OH219829   2.697   0.618   7.538 -0.3821  0.1141 -0.0962
 1086TIP3    H119830   2.718   0.705   7.504  1.3639 -1.3619 -3.1262
 1086TIP3    H219831   2.766   0.600   7.602 -0.6542  0.8327  0.4227
 1087TIP3   OH219832   5.421   3.537   9.111 -0.1205 -0.2163 -0.0194
 1087TIP3    H119833   5.464   3.563   9.193 -0.0680 -1.9409  0.5402
 1087TIP3    H219834   5.491   3.501   9.057 -0.0298  1.5452 -1.1496
 1088TIP3   OH219835   2.645   4.300   9.196  0.4951 -0.2477  0.5558
 1088TIP3    H119836   2.666   4.392   9.176 -2.3405  0.0424 -1.8033
 1088TIP3    H219837   2.632   4.299   9.291 -0.1357  2.0133  0.5589
 1089TIP3   OH219838   1.410   4.644   2.955  0.2468  0.1097  0.1047
 1089TIP3    H119839   1.330   4.612   2.997 -1.2374  0.5410 -2.1608
 1089TIP3    H219840   1.454   4.696   3.022 -0.6627 -1.2335  1.8248
 1090TIP3   OH219841   1.457   3.435   7.651  0.4634 -0.0021 -0.6257
 1090TIP3    H119842   1.479   3.522   7.685 -0.1367  0.0086 -0.2517
 1090TIP3    H219843   1.461   3.445   7.556  1.1629  0.2294 -0.5723
 1091TIP3   OH219844   6.140   2.209   6.286  0.6340  0.1530  0.4614
 1091TIP3    H119845   6.126   2.227   6.379  3.5554 -0.7466  1.1887
 1091TIP3    H219846   6.151   2.114   6.281 -1.6468 -0.1030 -1.2127
 1092TIP3   OH219847   1.707   5.312   1.237 -0.2308  1.0474  0.1704
 1092TIP3    H119848   1.736   5.401   1.217 -0.6417  1.6349  2.0054
 1092TIP3    H219849   1.633   5.297   1.179  1.6515  0.7079 -2.3193
 1093TIP3   OH219850   3.466   5.335   7.722 -0.2980 -0.5982  0.4091
 1093TIP3    H119851   3.528   5.272   7.685  1.2635  1.0465  0.0849
 1093TIP3    H219852   3.495   5.347   7.813  2.2908  2.8523 -0.6782
 1094TIP3   OH219853   0.934   1.050   1.341  0.7049  0.3980 -0.1074
 1094TIP3    H119854   0.879   0.972   1.340 -0.5625  1.2318 -2.5379
 1094TIP3    H219855   0.989   1.042   1.264 -0.1251  2.3234 -0.9563
 1095TIP3   OH219856   2.109   2.976   7.127 -0.5881  0.0058 -0.2135
 1095TIP3    H119857   2.080   2.930   7.206  1.8252 -1.2099  0.0611
 1095TIP3    H219858   2.160   3.050   7.160 -0.5551  0.1677 -0.6284
 1096TIP3   OH219859   3.708   1.337   1.142 -0.1691  0.1502  0.4314
 1096TIP3    H119860   3.651   1.371   1.074  0.1962 -1.0828 -0.5267
 1096TIP3    H219861   3.691   1.393   1.218 -2.5484 -0.0899  0.1550
 1097TIP3   OH219862   5.698   6.402   1.943  0.3195 -0.2897 -0.3059
 1097TIP3    H119863   5.771   6.430   1.889  0.4587 -2.4526 -1.3066
 1097TIP3    H219864   5.620   6.426   1.892  0.3885 -0.3444 -0.4363
 1098TIP3   OH219865   5.411   5.609   1.087 -0.0553  0.3363 -0.3694
 1098TIP3    H119866   5.454   5.693   1.100 -1.3637  1.0940 -0.8110
 1098TIP3    H219867   5.483   5.548   1.070  0.8327  1.6527 -1.5268
 1099TIP3   OH219868   3.416   0.295   7.743 -0.1881 -0.4162 -0.0864
 1099TIP3    H119869   3.416   0.303   7.839  2.1042 -0.9636  0.0094
 1099TIP3    H219870   3.428   0.385   7.712 -1.7511 -0.1214  0.0668
 1100TIP3   OH219871   0.706   2.725   0.256  0.1541  0.2582  0.1355
 1100TIP3    H119872   0.720   2.795   0.193 -0.0177  0.0704 -0.1146
 1100TIP3    H219873   0.749   2.649   0.218  1.1506  0.4542  0.8517
 1101TIP3   OH219874   1.278   4.769   6.725  0.1612 -0.5041 -0.6993
 1101TIP3    H119875   1.346   4.732   6.669  1.6099  0.7108  0.2156
 1101TIP3    H219876   1.232   4.832   6.669  1.1361  0.1806 -0.7492
 1102TIP3   OH219877   3.106   0.888   5.835 -0.1485 -0.1898  0.7400
 1102TIP3    H119878   3.016   0.859   5.855 -0.2758 -1.0371 -0.8884
 1102TIP3    H219879   3.103   0.983   5.846 -1.9565  0.1256 -1.6346
 1103TIP3   OH219880   3.521   3.325   7.971  0.4308  0.0233 -0.5990
 1103TIP3    H119881   3.434   3.364   7.979  0.6980  0.7187 -1.0718
 1103TIP3    H219882   3.515   3.242   8.020 -0.0671  0.7616  0.6236
 1104TIP3   OH219883   6.209   3.652   7.099  0.5148 -0.1099  0.3878
 1104TIP3    H119884   6.305   3.659   7.095  0.4289  1.1944 -0.0445
 1104TIP3    H219885   6.179   3.688   7.015 -0.3309 -1.6284  0.0096
 1105TIP3   OH219886   0.149   0.997   8.374 -0.3441 -0.3685  0.4773
 1105TIP3    H119887   0.234   1.043   8.372 -0.7567  0.3823 -0.3955
 1105TIP3    H219888   0.156   0.931   8.306 -0.5502 -0.1330  0.2257
 1106TIP3   OH219889   5.074   1.882   8.062 -0.5588 -0.4534 -0.2342
 1106TIP3    H119890   5.048   1.920   8.147  1.8270  0.2764  0.2390
 1106TIP3    H219891   5.009   1.814   8.046  0.0806 -2.1163  3.2679
 1107TIP3   OH219892   4.998   4.369   1.014  0.6182 -0.2514 -0.5362
 1107TIP3    H119893   5.090   4.352   0.992  0.7969  0.3973 -0.3301
 1107TIP3    H219894   4.951   4.356   0.932  0.6299 -2.3600 -0.2543
 1108TIP3   OH219895   6.416   4.436   1.015 -0.3292 -0.3366 -0.3797
 1108TIP3    H119896   6.451   4.438   0.926  1.2262 -0.9918  0.1720
 1108TIP3    H219897   6.384   4.346   1.025  0.6517 -0.6426  0.1151
 1109TIP3   OH219898   2.236   2.929   0.089  0.5235 -0.3931  0.0390
 1109TIP3    H119899   2.143   2.953   0.090 -0.0672 -2.4617  0.1869
 1109TIP3    H219900   2.259   2.917   0.181  0.9203 -0.0165 -0.0061
 1110TIP3   OH219901   5.710   5.725   0.512  0.0554  0.1975  0.2959
 1110TIP3    H119902   5.632   5.775   0.489 -0.5198 -0.2103  1.2850
 1110TIP3    H219903   5.680   5.662   0.579  1.7398  1.8855  2.8439
 1111TIP3   OH219904   5.948   4.396   6.629  0.2570  0.2219 -0.2344
 1111TIP3    H119905   5.872   4.350   6.664  0.1544 -0.4580 -1.3128
 1111TIP3    H219906   5.915   4.482   6.604  0.1327  0.3825  0.4595
 1112TIP3   OH219907   0.531   3.307   0.068  0.0955  0.5060  0.1233
 1112TIP3    H119908   0.464   3.374   0.055  1.2997  1.6032 -0.5332
 1112TIP3    H219909   0.508   3.267   0.153 -1.9051  0.2109 -0.4985
 1113TIP3   OH219910   2.186   5.172   8.535 -0.1008 -0.0918 -0.1100
 1113TIP3    H119911   2.095   5.152   8.556  0.1318  0.4461  1.5741
 1113TIP3    H219912   2.215   5.230   8.606  1.4105  0.1463 -0.8760
 1114TIP3   OH219913   4.019   3.161   1.460  0.4862 -0.0825  0.3443
 1114TIP3    H119914   3.965   3.083   1.477 -0.8420  0.6132 -0.4767
 1114TIP3    H219915   4.109   3.130   1.468 -0.0162 -1.2780  1.8331
 1115TIP3   OH219916   3.886   5.818   0.176 -0.0879  0.0085  0.1278
 1115TIP3    H119917   3.951   5.863   0.122 -1.8912  0.1929 -2.0554
 1115TIP3    H219918   3.895   5.726   0.152  1.1233 -0.3539  1.8396
 1116TIP3   OH219919   6.144   5.492   0.282 -0.0196  0.1623 -0.2480
 1116TIP3    H119920   6.147   5.582   0.249 -1.4276 -0.2040 -1.4501
 1116TIP3    H219921   6.221   5.485   0.338  0.1767  2.0819 -0.2176
 1117TIP3   OH219922   3.049   3.865   8.580  0.6284 -0.3645 -0.2053
 1117TIP3    H119923   3.109   3.936   8.599  1.1755 -1.1215  0.9925
 1117TIP3    H219924   2.962   3.899   8.601  1.0348 -0.5648  2.0636
 1118TIP3   OH219925   4.266   1.156   0.065  0.2730  0.0690 -0.0200
 1118TIP3    H119926   4.193   1.209   0.097 -0.9884 -0.8615 -1.2259
 1118TIP3    H219927   4.263   1.166  -0.030  3.0031  1.5965 -0.0370
 1119TIP3   OH219928   5.376   3.608   7.296  0.1650  0.0908  0.3002
 1119TIP3    H119929   5.348   3.540   7.357 -0.4352 -0.0578 -0.1296
 1119TIP3    H219930   5.440   3.565   7.239 -1.8779 -0.8129 -1.4464
 1120TIP3   OH219931   3.363   2.334   8.387 -0.4634 -0.7325 -0.4476
 1120TIP3    H119932   3.344   2.253   8.435  1.5664 -1.0274 -0.0467
 1120TIP3    H219933   3.326   2.320   8.300 -0.0500 -2.1699 -0.4247
 1121TIP3   OH219934   2.116   1.564   1.567  0.5444  0.1336  0.3423
 1121TIP3    H119935   2.133   1.651   1.533 -1.4021  0.7971  0.9206
 1121TIP3    H219936   2.050   1.577   1.635  0.0314 -1.8111  0.2954
 1122TIP3   OH219937   1.361   6.352   7.175 -0.3439  0.0364  0.2162
 1122TIP3    H119938   1.344   6.259   7.185 -2.3829  0.2757 -0.5279
 1122TIP3    H219939   1.277   6.394   7.195  0.3456  1.6591 -0.1370
 1123TIP3   OH219940   3.043   2.965   9.349  0.7098 -0.2983  0.0029
 1123TIP3    H119941   3.107   2.981   9.418  0.4597  0.9785 -0.0289
 1123TIP3    H219942   2.967   2.929   9.396  0.6229  0.3472  0.3644
 1124TIP3   OH219943   3.134   1.708   6.697 -0.0418  0.1548 -0.5692
 1124TIP3    H119944   3.225   1.737   6.702 -0.1786  0.5284 -0.2367
 1124TIP3    H219945   3.093   1.743   6.777 -0.6523  0.6134 -1.0736
 1125TIP3   OH219946   3.521   2.667   0.342  0.5973  0.2915 -0.0400
 1125TIP3    H119947   3.518   2.682   0.437  0.6224  0.8382 -0.1261
 1125TIP3    H219948   3.612   2.680   0.318  0.5168  0.5503 -0.2056
 1126TIP3   OH219949   3.337   1.542   6.074 -0.7019 -0.4824 -0.0424
 1126TIP3    H119950   3.410   1.582   6.026  1.1581 -2.1585  1.2328
 1126TIP3    H219951   3.302   1.478   6.012 -1.3278  0.5231 -0.7652
 1127TIP3   OH219952   3.295   4.895   0.803  0.2194 -0.1256 -0.0319
 1127TIP3    H119953   3.316   4.829   0.869 -1.5182 -1.4646 -0.7073
 1127TIP3    H219954   3.318   4.978   0.843  1.0339 -1.0400  1.4804
 1128TIP3   OH219955   2.801   2.074   1.329  0.0666 -0.2064  0.0992
 1128TIP3    H119956   2.822   2.027   1.248  3.0390  0.3449  0.4423
 1128TIP3    H219957   2.805   2.007   1.397 -0.2570 -0.2642  0.0645
 1129TIP3   OH219958   5.069   6.286   6.985  0.3143  0.1213 -0.0057
 1129TIP3    H119959   5.142   6.258   6.929  2.3470  0.0803  2.4560
 1129TIP3    H219960   4.998   6.224   6.966  1.0557 -0.1145 -2.1859
 1130TIP3   OH219961   5.683   6.356   0.825 -0.0714 -0.2085 -0.5036
 1130TIP3    H119962   5.700   6.406   0.905  0.0360  0.4654 -0.9319
 1130TIP3    H219963   5.668   6.267   0.855  0.7385 -0.1237  0.2071
 1131TIP3   OH219964   3.766   0.181   3.225  0.7108 -0.8747  0.3082
 1131TIP3    H119965   3.835   0.114   3.229 -0.2358 -1.8948  0.1792
 1131TIP3    H219966   3.804   0.252   3.173  2.1340 -0.8182  1.3698
 1132TIP3   OH219967   5.200   2.686   1.556 -0.0993 -0.0804 -0.1265
 1132TIP3    H119968   5.252   2.722   1.628  0.2396 -1.7686  0.4962
 1132TIP3    H219969   5.223   2.593   1.553 -2.6003 -0.7550 -0.2377
 1133TIP3   OH219970   5.594   5.589   8.529 -0.4685  0.8046  0.5779
 1133TIP3    H119971   5.612   5.601   8.436  1.9072 -0.9877  0.7106
 1133TIP3    H219972   5.499   5.584   8.535 -0.6347 -0.8253 -2.0362
 1134TIP3   OH219973   6.408   3.676   8.736 -0.2559 -0.0065  0.1155
 1134TIP3    H119974   6.398   3.645   8.826  0.8906  1.7461  0.9099
 1134TIP3    H219975   6.373   3.606   8.682  1.3567 -2.2416  1.7910
 1135TIP3   OH219976   3.611   2.602   0.049 -0.0695  0.0861  0.2568
 1135TIP3    H119977   3.538   2.544   0.030  1.2485 -1.0514 -1.7126
 1135TIP3    H219978   3.673   2.548   0.099 -0.1172  0.7382  1.0481
 1136TIP3   OH219979   1.114   0.675   7.667 -0.4677 -0.3596  0.0257
 1136TIP3    H119980   1.181   0.730   7.707  1.2379 -0.0875 -2.9066
 1136TIP3    H219981   1.038   0.732   7.658 -0.0361  0.3056  0.5315
 1137TIP3   OH219982   2.491   2.794   8.415  0.2084  0.6392 -0.3435
 1137TIP3    H119983   2.465   2.783   8.506 -0.8385  1.2925 -0.5456
 1137TIP3    H219984   2.564   2.733   8.403 -1.3978 -1.4946  0.1740
 1138TIP3   OH219985   1.626   0.509   0.726 -0.0358  0.1315  0.3736
 1138TIP3    H119986   1.592   0.453   0.796 -0.4023  0.2975  0.3333
 1138TIP3    H219987   1.692   0.564   0.768 -0.3662  0.3405  0.6263
 1139TIP3   OH219988   1.471   5.774   7.852 -0.0312 -0.2368 -0.3133
 1139TIP3    H119989   1.504   5.758   7.763 -0.6162  0.5732 -0.6850
 1139TIP3    H219990   1.517   5.853   7.880 -1.5021  0.8217 -0.7830
 1140TIP3   OH219991   6.277   4.031   9.034  0.1646 -0.2371  0.6689
 1140TIP3    H119992   6.230   4.079   9.101 -0.6354 -1.0581  0.7312
 1140TIP3    H219993   6.244   4.067   8.951  1.2820  0.8953  0.7020
 1141TIP3   OH219994   5.411   2.438   8.636  0.8175  0.2334 -0.7760
 1141TIP3    H119995   5.492   2.488   8.645  1.3254 -0.6991 -0.0689
 1141TIP3    H219996   5.436   2.347   8.650 -0.3982 -0.0531 -0.3022
 1142TIP3   OH219997   0.793   0.921   6.912 -0.2277  0.5323 -0.2184
 1142TIP3    H119998   0.779   0.879   6.827 -1.3427 -0.6243  0.5019
 1142TIP3    H219999   0.829   1.007   6.890  2.2227 -0.7850 -1.7473
 1143TIP3   OH220000   4.053   0.307   0.628  0.1264  0.0868 -0.3155
 1143TIP3    H120001   4.077   0.228   0.676 -0.4702  0.5157  0.7121
 1143TIP3    H220002   3.970   0.285   0.585  0.0614  0.0925 -0.1922
 1144TIP3   OH220003   5.546   2.641   7.564 -0.1627 -0.2717  0.0082
 1144TIP3    H120004   5.471   2.644   7.623  0.2168  0.8335  0.4642
 1144TIP3    H220005   5.525   2.704   7.495  0.0977 -0.3679 -0.1584
 1145TIP3   OH220006   1.528   6.242   8.423  0.1025 -0.2498  0.4138
 1145TIP3    H120007   1.445   6.268   8.464  0.3967  1.7039 -0.1016
 1145TIP3    H220008   1.534   6.297   8.345  1.0528 -1.6577 -0.5348
 1146TIP3   OH220009   5.384   3.177   0.983  0.3292  0.4514 -0.3120
 1146TIP3    H120010   5.434   3.258   0.982 -1.4767  1.7120  1.9541
 1146TIP3    H220011   5.429   3.122   1.047  1.5721 -0.4459 -1.8710
 1147TIP3   OH220012   1.379   3.632   1.974  0.0773  0.2222  0.0766
 1147TIP3    H120013   1.404   3.670   1.889  0.1626  0.3925  0.1784
 1147TIP3    H220014   1.290   3.601   1.961  0.1497  0.0931 -0.1290
 1148TIP3   OH220015   1.431   3.426   0.359  0.2707 -0.1578  0.3489
 1148TIP3    H120016   1.418   3.495   0.294  1.7056  0.0701  0.2730
 1148TIP3    H220017   1.413   3.345   0.310  0.1484  0.0776 -0.0043
 1149TIP3   OH220018   2.752   4.032   7.010  0.3611  0.1363  0.1055
 1149TIP3    H120019   2.730   4.089   7.084  0.2579  0.6934 -0.3460
 1149TIP3    H220020   2.706   4.071   6.935  2.8847  1.4232 -0.9038
 1150TIP3   OH220021   1.769   3.822   2.999 -0.4775 -0.1873 -0.1429
 1150TIP3    H120022   1.750   3.915   3.010  0.7706 -0.1141  1.7547
 1150TIP3    H220023   1.766   3.808   2.904 -2.7101  1.2994 -0.3490
 1151TIP3   OH220024   5.326   1.914   8.949 -0.0116 -0.0089  0.1673
 1151TIP3    H120025   5.392   1.845   8.940 -0.9742 -0.7017 -2.5234
 1151TIP3    H220026   5.348   1.977   8.880  0.2135  1.8768  1.8930
 1152TIP3   OH220027   6.019   3.915   1.424  0.0253 -0.0037 -0.2526
 1152TIP3    H120028   5.926   3.910   1.402 -0.1986  2.1655 -0.0519
 1152TIP3    H220029   6.041   4.008   1.415  2.0369 -0.3748  0.2634
 1153TIP3   OH220030   4.073   5.807   1.939  0.2564 -0.1122  0.5193
 1153TIP3    H120031   4.072   5.711   1.947  0.1112 -0.2382 -0.8889
 1153TIP3    H220032   4.146   5.826   1.881 -1.1591  0.4525 -1.1482
 1154TIP3   OH220033   1.360   4.934   2.079  0.3186  0.5357 -0.1201
 1154TIP3    H120034   1.345   4.944   1.985  0.4955  0.0104 -0.2101
 1154TIP3    H220035   1.444   4.888   2.085  0.7189  1.3162  0.3151
 1155TIP3   OH220036   4.520   0.629   0.218 -0.0485  0.4011  0.3504
 1155TIP3    H120037   4.610   0.653   0.240  0.4496 -1.7300  0.8139
 1155TIP3    H220038   4.469   0.655   0.295  0.1616  1.4666  0.1525
 1156TIP3   OH220039   2.966   5.155   3.304 -0.4795  0.2078  0.2833
 1156TIP3    H120040   2.932   5.194   3.223 -0.0543  0.2001  0.1009
 1156TIP3    H220041   3.032   5.093   3.275  0.2063  0.7352  0.6660
 1157TIP3   OH220042   6.230   3.302   6.079 -0.0803  0.2533  1.0959
 1157TIP3    H120043   6.319   3.335   6.087 -0.1716  0.5570  0.8882
 1157TIP3    H220044   6.235   3.236   6.009 -0.1366  0.7015  0.6671
 1158TIP3   OH220045   6.142   2.095   1.262 -0.4597  0.3261 -0.1154
 1158TIP3    H120046   6.172   2.125   1.176  0.7626  0.9654  0.5046
 1158TIP3    H220047   6.138   2.000   1.254 -1.1368  0.4143 -1.1037
 1159TIP3   OH220048   5.593   2.769   8.655 -0.3503  0.4425  0.3634
 1159TIP3    H120049   5.500   2.775   8.678 -0.2835  0.5356  0.6073
 1159TIP3    H220050   5.638   2.760   8.738 -0.1066  0.8116  0.2759
 1160TIP3   OH220051   2.045   6.052   8.641  0.3602 -0.4883  0.0850
 1160TIP3    H120052   1.952   6.044   8.617 -0.0337  0.1799  1.2886
 1160TIP3    H220053   2.049   6.022   8.732  0.9964  1.1117  0.6177
 1161TIP3   OH220054   1.928   1.585   2.011  0.7827  0.7679  0.6315
 1161TIP3    H120055   1.949   1.669   2.052  0.4033  0.5449  1.2941
 1161TIP3    H220056   1.894   1.531   2.082  0.6623  0.1748  0.1352
 1162TIP3   OH220057   1.863   3.131   2.622 -0.2263  0.3279 -0.0905
 1162TIP3    H120058   1.896   3.042   2.609  1.4745  0.6798  1.3183
 1162TIP3    H220059   1.938   3.187   2.603 -0.9955  1.3972 -0.0400
 1163TIP3   OH220060   2.706   3.193   0.531 -0.9112 -0.3569  0.2415
 1163TIP3    H120061   2.659   3.265   0.489 -1.3523 -0.5691  0.3709
 1163TIP3    H220062   2.742   3.231   0.611  1.0814  0.4209 -0.9520
 1164TIP3   OH220063   2.184   0.708   1.568  0.4720 -0.4962  0.4363
 1164TIP3    H120064   2.193   0.619   1.602 -2.2907 -0.7127  0.8218
 1164TIP3    H220065   2.161   0.697   1.476  1.2730 -0.1248  0.1834
 1165TIP3   OH220066   2.443   1.149   7.705 -0.8027  0.3224 -0.4466
 1165TIP3    H120067   2.412   1.239   7.705 -0.2550  0.5405  0.8223
 1165TIP3    H220068   2.505   1.145   7.633 -0.9199  0.9249 -0.5884
 1166TIP3   OH220069   2.593   6.215   2.692  0.0942  0.1058  0.4671
 1166TIP3    H120070   2.577   6.147   2.756 -1.4765 -0.2985 -0.3135
 1166TIP3    H220071   2.530   6.198   2.622  0.0274  2.0413  0.0026
 1167TIP3   OH220072   2.768   1.944   8.912  0.1969  0.3705 -0.3240
 1167TIP3    H120073   2.807   1.907   8.991 -1.5547 -2.9675 -0.8125
 1167TIP3    H220074   2.689   1.988   8.944  1.8468  3.2434  0.1605
 1168TIP3   OH220075   4.448   4.074   8.909 -0.2007 -0.0175 -0.2717
 1168TIP3    H120076   4.387   4.137   8.948 -2.1568 -1.3146 -1.0828
 1168TIP3    H220077   4.443   3.997   8.966 -0.5855 -0.7237 -1.2274
 1169TIP3   OH220078   2.560   0.462   0.914 -0.8321  0.7274 -0.3107
 1169TIP3    H120079   2.638   0.515   0.895  1.1359 -2.2294 -1.0711
 1169TIP3    H220080   2.558   0.456   1.010  1.0669 -0.6728 -0.2983
 1170TIP3   OH220081   0.290   5.854   8.914  0.1624 -0.3797  0.0880
 1170TIP3    H120082   0.301   5.761   8.931 -1.5909 -1.0313 -1.8784
 1170TIP3    H220083   0.376   5.883   8.882  0.1310 -1.9323 -1.5729
 1171TIP3   OH220084   5.491   3.596   7.662  0.2410 -0.7018 -0.0666
 1171TIP3    H120085   5.414   3.579   7.717 -0.0975  0.3121 -0.2240
 1171TIP3    H220086   5.521   3.683   7.688  0.5050 -0.5056 -0.9969
 1172TIP3   OH220087   0.951   1.116   8.439 -0.8011 -0.1951 -0.7606
 1172TIP3    H120088   0.956   1.212   8.434 -1.5652 -0.1983 -2.0746
 1172TIP3    H220089   0.956   1.087   8.348  0.0461 -1.4591 -0.3363
 1173TIP3   OH220090   4.975   4.785   8.302 -0.7539 -0.0778  0.6062
 1173TIP3    H120091   4.974   4.694   8.330  0.1407 -0.7395 -1.3005
 1173TIP3    H220092   5.050   4.824   8.347  0.7033 -1.1302 -0.7951
 1174TIP3   OH220093   3.058   0.263   2.173  0.0626 -0.6804 -0.4851
 1174TIP3    H120094   3.110   0.207   2.230 -1.7429 -1.9773  0.0008
 1174TIP3    H220095   3.088   0.243   2.085  1.0674 -0.6351 -0.1573
 1175TIP3   OH220096   2.624   5.775   0.280  0.6177  0.2043 -0.4700
 1175TIP3    H120097   2.667   5.692   0.259  0.3658 -0.6799  2.1816
 1175TIP3    H220098   2.657   5.836   0.214  0.2606 -2.1049 -2.9610
 1176TIP3   OH220099   5.061   4.636   1.450  0.0856 -0.4999  0.0149
 1176TIP3    H120100   5.001   4.590   1.391  0.2484 -0.7238  0.0201
 1176TIP3    H220101   5.012   4.712   1.481  0.4872  0.4387 -1.5254
 1177TIP3   OH220102   4.427   2.120   8.453  0.1066  0.0874  0.2427
 1177TIP3    H120103   4.432   2.075   8.368  0.2437  0.9310 -0.2089
 1177TIP3    H220104   4.445   2.211   8.432  0.5195  0.2395  1.2471
 1178TIP3   OH220105   5.161   3.586   6.354 -0.7664  0.3611  0.2487
 1178TIP3    H120106   5.195   3.597   6.265 -2.3013  0.4262 -0.3628
 1178TIP3    H220107   5.073   3.550   6.342 -0.2831 -1.5159  1.8295
 1179TIP3   OH220108   0.543   4.611   6.818  0.2852  0.5840  0.3128
 1179TIP3    H120109   0.639   4.604   6.821  0.2833  0.9111  2.2900
 1179TIP3    H220110   0.526   4.705   6.827 -0.2363  0.4195  1.0968
 1180TIP3   OH220111   1.740   3.341   9.383  0.2546 -0.5529  0.3064
 1180TIP3    H120112   1.752   3.436   9.378 -2.2281 -0.1934 -0.3569
 1180TIP3    H220113   1.817   3.305   9.339  1.6261  1.0816  1.2196
 1181TIP3   OH220114   3.670   0.040   8.854  0.2261 -0.2583 -0.3376
 1181TIP3    H120115   3.730  -0.009   8.911  0.2722 -1.3203 -1.2678
 1181TIP3    H220116   3.695   0.015   8.765 -1.1276 -0.1778 -0.7682
 1182TIP3   OH220117   2.225   3.761   0.166  0.2944  0.2799  0.4302
 1182TIP3    H120118   2.174   3.753   0.085  1.4400  1.7648 -0.4983
 1182TIP3    H220119   2.265   3.674   0.178 -1.4091 -0.5258  0.5043
 1183TIP3   OH220120   5.579   5.731   0.819 -0.1144 -0.2186 -0.1964
 1183TIP3    H120121   5.672   5.750   0.830  0.0442 -1.0067 -0.0542
 1183TIP3    H220122   5.538   5.767   0.898 -0.0391  0.7811 -0.6045
 1184TIP3   OH220123   2.558   4.316   2.484 -0.5259 -0.1089 -0.3038
 1184TIP3    H120124   2.646   4.347   2.505 -0.4523 -0.2350 -0.4221
 1184TIP3    H220125   2.533   4.263   2.560  0.3986 -1.9400 -1.2070
 1185TIP3   OH220126   1.894   6.214   7.930 -0.0686  0.0826 -0.1225
 1185TIP3    H120127   1.831   6.230   8.000 -1.0213 -0.9937 -0.7139
 1185TIP3    H220128   1.923   6.301   7.904 -2.1604  0.6870 -0.6082
 1186TIP3   OH220129   3.902   4.108   7.830 -0.0766  0.0393  0.2919
 1186TIP3    H120130   3.969   4.107   7.898  0.2436  1.3983  0.0417
 1186TIP3    H220131   3.949   4.082   7.750  0.0550  0.4918  0.2144
 1187TIP3   OH220132   1.517   5.110   7.569  0.7790  0.0925 -0.5514
 1187TIP3    H120133   1.444   5.048   7.573 -0.1205  1.1794  1.2347
 1187TIP3    H220134   1.500   5.161   7.489 -0.2716  0.1437 -0.3088
 1188TIP3   OH220135   5.267   1.110   1.135 -0.2870  0.2036  0.0741
 1188TIP3    H120136   5.208   1.181   1.111 -0.5987 -0.2005 -0.3721
 1188TIP3    H220137   5.217   1.056   1.196 -0.4266 -0.1990 -0.3879
 1189TIP3   OH220138   6.179   1.111   8.319 -0.0560 -0.1303  0.1170
 1189TIP3    H120139   6.198   1.132   8.227 -0.4097  0.1437  0.1042
 1189TIP3    H220140   6.180   1.195   8.364  1.5165 -0.3988  0.6423
 1190TIP3   OH220141   1.836   0.114   0.183  0.0460  0.0029 -0.1735
 1190TIP3    H120142   1.864   0.073   0.265  0.0577 -0.6664 -0.5097
 1190TIP3    H220143   1.747   0.144   0.201 -0.7417 -1.9708 -0.5357
 1191TIP3   OH220144   2.054   2.603   1.991 -0.3925 -0.3555  0.7243
 1191TIP3    H120145   1.964   2.621   1.963 -0.1489  0.2571  0.3099
 1191TIP3    H220146   2.055   2.624   2.084 -0.3191  1.0490  0.4227
 1192TIP3   OH220147   3.056   2.682   0.234 -0.3000  0.6589  0.0970
 1192TIP3    H120148   3.001   2.743   0.185  1.3491  0.7628 -1.7919
 1192TIP3    H220149   3.047   2.599   0.187 -0.0095  0.2884  0.6840
 1193TIP3   OH220150   1.938   0.338   3.059 -0.0203  0.7478 -0.0662
 1193TIP3    H120151   2.024   0.355   3.097  0.1817 -1.3157  0.5054
 1193TIP3    H220152   1.947   0.365   2.967  1.7187 -0.7055 -0.3812
 1194TIP3   OH220153   4.432   1.936   8.142 -0.0633  0.0101 -0.0349
 1194TIP3    H120154   4.445   1.961   8.050  0.0738  1.6926  0.4190
 1194TIP3    H220155   4.519   1.911   8.173  0.1214  0.6509 -0.0277
 1195TIP3   OH220156   2.833   0.270   7.203  0.0917 -0.0799  0.1849
 1195TIP3    H120157   2.824   0.359   7.240 -0.1435  0.1453 -0.4020
 1195TIP3    H220158   2.879   0.283   7.121 -0.0159 -0.4972  0.0568
 1196TIP3   OH220159   0.096   4.487   7.394  0.7155 -0.2976 -0.2585
 1196TIP3    H120160   0.056   4.483   7.307 -0.4464 -0.5001  0.2648
 1196TIP3    H220161   0.039   4.545   7.444  1.0275 -0.6647  0.5465
 1197TIP3   OH220162   2.528   4.841   8.458  0.2417  0.0060  0.0081
 1197TIP3    H120163   2.592   4.865   8.524 -0.7866 -0.2903  1.1594
 1197TIP3    H220164   2.458   4.798   8.508  0.2372 -1.8469 -1.4836
 1198TIP3   OH220165   4.573   0.988   8.560  0.3776 -0.1710  0.4005
 1198TIP3    H120166   4.580   0.974   8.654  1.4880 -1.1454  0.1921
 1198TIP3    H220167   4.661   1.011   8.532 -0.2428  1.6905 -0.1874
 1199TIP3   OH220168   3.547   3.114   0.679  0.6233  0.1549 -0.1590
 1199TIP3    H120169   3.556   3.104   0.584  0.0471  0.1614 -0.2214
 1199TIP3    H220170   3.565   3.027   0.714  0.5561  0.0828 -0.3014
 1200TIP3   OH220171   2.013   5.612   2.788  0.0816 -0.0476  0.7803
 1200TIP3    H120172   2.008   5.519   2.764 -0.5656  0.8490 -3.4988
 1200TIP3    H220173   1.930   5.630   2.832 -0.8328 -1.0938 -0.4273
 1201TIP3   OH220174   4.895   1.392   2.494  0.1512 -0.5514 -0.4762
 1201TIP3    H120175   4.849   1.366   2.414  0.0138  2.1527 -1.3856
 1201TIP3    H220176   4.988   1.387   2.472  0.1865 -1.7463 -0.1056
 1202TIP3   OH220177   4.065   2.674   1.679  0.0204 -0.2795  0.1662
 1202TIP3    H120178   3.981   2.669   1.723 -0.3050 -0.2756 -0.4401
 1202TIP3    H220179   4.122   2.720   1.741 -0.8467  1.1332 -0.0219
 1203TIP3   OH220180   5.030   6.058   8.675  0.3155 -0.1389  0.0817
 1203TIP3    H120181   5.031   6.114   8.752  0.0449 -0.8741  0.6276
 1203TIP3    H220182   4.955   6.088   8.624 -1.0337 -1.2419  1.3238
 1204TIP3   OH220183   4.367   5.291   1.110  0.4200 -0.3458 -0.1227
 1204TIP3    H120184   4.459   5.267   1.111 -0.1732 -2.9294  0.6339
 1204TIP3    H220185   4.326   5.228   1.051 -0.9206  0.5299 -0.1761
 1205TIP3   OH220186   3.716   1.318   0.536 -0.1685  0.3178 -0.3711
 1205TIP3    H120187   3.693   1.411   0.534 -0.2253  0.3611  1.2786
 1205TIP3    H220188   3.783   1.312   0.604  0.6206 -0.6993 -1.2012
 1206TIP3   OH220189   1.261   1.967   0.596  0.3771  0.3125 -0.1218
 1206TIP3    H120190   1.274   1.953   0.503  1.1018  0.6989 -0.0838
 1206TIP3    H220191   1.340   2.013   0.625  1.0200 -1.3669  1.0245
 1207TIP3   OH220192   4.808   3.150   2.676 -0.2422 -0.1680  0.1631
 1207TIP3    H120193   4.725   3.198   2.670  0.2788  0.6787 -0.2923
 1207TIP3    H220194   4.781   3.058   2.679 -1.2343  0.1273  0.8040
 1208TIP3   OH220195   0.096   5.368   1.917  0.5554 -0.2718 -0.3288
 1208TIP3    H120196   0.116   5.440   1.977  0.2641 -1.2011  0.9142
 1208TIP3    H220197   0.181   5.345   1.879  1.2277 -1.3907  1.7172
 1209TIP3   OH220198   0.648   3.968   2.710  0.1322 -0.0864 -0.5619
 1209TIP3    H120199   0.721   3.964   2.771 -1.0032 -0.5735  0.8423
 1209TIP3    H220200   0.594   4.041   2.742 -1.0937 -1.0931 -0.2244
 1210TIP3   OH220201   1.125   4.731   1.880  0.1525 -0.6028  0.0271
 1210TIP3    H120202   1.096   4.821   1.894  2.4075  0.0918  0.6510
 1210TIP3    H220203   1.063   4.677   1.930 -0.7708  0.6468  0.2676
 1211TIP3   OH220204   4.525   3.826   6.593  0.0368 -0.2489 -0.0792
 1211TIP3    H120205   4.525   3.731   6.607  0.5133 -0.2476 -0.0642
 1211TIP3    H220206   4.616   3.852   6.604 -0.3589  0.4962  1.8087
 1212TIP3   OH220207   0.604   5.715   9.149 -0.4542  0.0423  0.0150
 1212TIP3    H120208   0.618   5.809   9.142  0.3466  0.0247  1.0511
 1212TIP3    H220209   0.535   5.705   9.214  0.4949 -0.0979  1.0473
 1213TIP3   OH220210   4.876   4.960   0.272 -0.2477 -0.8444  0.6303
 1213TIP3    H120211   4.908   5.030   0.329  0.4633 -0.4341 -0.2483
 1213TIP3    H220212   4.792   4.935   0.310  0.6178 -1.2305  2.3994
 1214TIP3   OH220213   1.809   5.416   1.781  0.2917  0.0621 -0.0342
 1214TIP3    H120214   1.806   5.434   1.687 -1.1613 -2.6457 -0.5993
 1214TIP3    H220215   1.833   5.324   1.787 -2.6373 -0.7016  2.0847
 1215TIP3   OH220216   4.584   2.723   0.300 -0.2683  0.1619 -0.4474
 1215TIP3    H120217   4.518   2.731   0.231 -0.9422 -1.2958 -0.0164
 1215TIP3    H220218   4.661   2.766   0.264 -1.2435  1.3459 -1.2295
 1216TIP3   OH220219   1.785   2.015   1.653 -0.4497  0.3218  0.5171
 1216TIP3    H120220   1.794   2.098   1.607 -2.0231 -0.4362 -1.2671
 1216TIP3    H220221   1.767   1.950   1.585 -0.5060 -1.2836  1.9658
 1217TIP3   OH220222   0.687   3.908   6.160 -0.1115  0.2784  0.4122
 1217TIP3    H120223   0.773   3.891   6.199 -0.3920 -0.4843  0.7224
 1217TIP3    H220224   0.699   3.988   6.109  0.9821 -0.2452 -0.1815
 1218TIP3   OH220225   2.441   4.824   0.285 -0.5744  0.4128  0.2626
 1218TIP3    H120226   2.387   4.810   0.206 -1.3371 -0.5911  0.9307
 1218TIP3    H220227   2.502   4.893   0.260 -1.1514  0.4923 -1.0398
 1219TIP3   OH220228   0.631   2.159   0.918  0.5567  0.6145  0.4240
 1219TIP3    H120229   0.615   2.073   0.956  0.6947  0.2175 -0.3958
 1219TIP3    H220230   0.710   2.190   0.963  1.9201 -0.7195 -0.9113
 1220TIP3   OH220231   6.185   1.399   1.509 -0.3215 -0.2783  0.1507
 1220TIP3    H120232   6.253   1.434   1.566 -0.3042 -0.5072  0.2733
 1220TIP3    H220233   6.223   1.402   1.421 -0.2863 -0.0785  0.1717
 1221TIP3   OH220234   4.478   1.987   1.720 -0.3968 -0.1656  0.4650
 1221TIP3    H120235   4.531   1.938   1.656 -1.3981 -0.4628 -0.1697
 1221TIP3    H220236   4.388   1.963   1.698 -0.8274  0.8452  1.0937
 1222TIP3   OH220237   0.955   0.189   1.137 -0.0207  0.4441  0.0592
 1222TIP3    H120238   0.911   0.107   1.119 -2.3179  1.5206  0.4069
 1222TIP3    H220239   0.886   0.255   1.133  1.4669  2.1821  1.2167
 1223TIP3   OH220240   2.227   2.207   1.722 -0.4444 -0.8581  0.1337
 1223TIP3    H120241   2.276   2.185   1.801 -0.2063 -0.8525 -0.0143
 1223TIP3    H220242   2.292   2.241   1.661 -1.0360  2.6743  1.1834
 1224TIP3   OH220243   5.211   5.092   1.406  0.2202  0.2480 -0.1661
 1224TIP3    H120244   5.159   5.016   1.380 -0.3150  0.5559 -0.0064
 1224TIP3    H220245   5.267   5.060   1.477 -0.0510  0.0182 -0.0537
 1225TIP3   OH220246   5.887   1.587   6.994  0.2354  0.6866 -0.1766
 1225TIP3    H120247   5.863   1.502   6.955  1.7384  0.0282  0.2544
 1225TIP3    H220248   5.879   1.650   6.922  2.0416 -0.3423 -1.3826
 1226TIP3   OH220249   5.939   2.314   1.302 -0.2286 -0.2126  0.2675
 1226TIP3    H120250   5.891   2.284   1.379  0.5710 -2.0077  0.1197
 1226TIP3    H220251   6.026   2.274   1.311  0.2997  0.6255 -0.8992
 1227TIP3   OH220252   5.762   2.754   2.529 -0.6914  0.0448 -0.1634
 1227TIP3    H120253   5.767   2.663   2.500 -2.5775 -0.5751  1.2893
 1227TIP3    H220254   5.853   2.780   2.542  0.0514 -0.7862 -2.9800
 1228TIP3   OH220255   2.118   4.840   8.664 -0.0186  0.0610 -0.3056
 1228TIP3    H120256   2.033   4.812   8.698 -0.0860 -0.0043 -0.5282
 1228TIP3    H220257   2.149   4.905   8.727  0.0281 -0.3328  0.0857
 1229TIP3   OH220258   0.255   1.958   1.744 -0.7649 -0.2221 -0.7098
 1229TIP3    H120259   0.345   1.961   1.775 -1.0319  4.3498  0.3761
 1229TIP3    H220260   0.203   1.983   1.820 -2.4666  1.3276 -2.2593
 1230TIP3   OH220261   3.070   6.402   7.148 -0.4307  0.0120  0.1673
 1230TIP3    H120262   3.104   6.452   7.074 -2.4587  0.2848 -0.6329
 1230TIP3    H220263   3.074   6.463   7.222 -3.6494  1.8581 -0.9523
 1231TIP3   OH220264   5.145   4.061   8.299  0.1009  0.0028  0.5187
 1231TIP3    H120265   5.098   4.045   8.217 -1.0854 -0.5042  1.2770
 1231TIP3    H220266   5.179   4.150   8.289 -0.1236 -0.0033 -0.4765
 1232TIP3   OH220267   0.758   1.251   7.150 -0.2252  0.0826  0.1243
 1232TIP3    H120268   0.779   1.176   7.206  1.6395  1.1636  0.9799
 1232TIP3    H220269   0.696   1.303   7.201  0.4228  0.3742  0.6302
 1233TIP3   OH220270   2.481   5.345   0.744  1.0013 -0.0226 -0.0226
 1233TIP3    H120271   2.564   5.299   0.731  0.8282 -1.3643  2.9329
 1233TIP3    H220272   2.502   5.436   0.725  2.5268 -0.6260 -1.5629
 1234TIP3   OH220273   0.894   1.944   2.053 -0.4651  0.8632 -0.6592
 1234TIP3    H120274   0.806   1.928   2.088 -0.7115  3.0703 -0.0832
 1234TIP3    H220275   0.885   2.023   2.000  1.3282  1.7361  0.2233
 1235TIP3   OH220276   1.442   4.971   0.083  0.2169 -0.1374  0.1473
 1235TIP3    H120277   1.502   4.982   0.158 -1.2202 -2.0252  1.6922
 1235TIP3    H220278   1.372   5.034   0.099  0.9218  0.9186 -0.7804
 1236TIP3   OH220279   1.558   4.379   0.239  0.4349 -0.1262  0.1066
 1236TIP3    H120280   1.589   4.426   0.316  2.0161  1.7894 -1.5820
 1236TIP3    H220281   1.467   4.406   0.230 -0.2153 -1.4575  2.0035
 1237TIP3   OH220282   6.407   0.366   6.854  0.0783 -0.0451 -0.0346
 1237TIP3    H120283   6.345   0.354   6.926  2.2235 -3.2183  1.5537
 1237TIP3    H220284   6.363   0.330   6.777 -0.6179 -0.9007  0.7482
 1238TIP3   OH220285   6.127   0.617   0.551  0.8544 -0.2312  0.1248
 1238TIP3    H120286   6.156   0.554   0.485 -0.7146  0.0797 -0.9242
 1238TIP3    H220287   6.104   0.695   0.501  1.7364  0.8122  1.2935
 1239TIP3   OH220288   1.981   3.854   2.513  0.1651  0.7384 -0.4769
 1239TIP3    H120289   2.056   3.841   2.572  0.5840 -1.0669 -1.3341
 1239TIP3    H220290   1.908   3.812   2.558  0.4341 -0.4364 -1.1003
 1240TIP3   OH220291   3.584   6.314   0.813 -0.0034 -0.3430 -0.0817
 1240TIP3    H120292   3.650   6.352   0.755  1.0187  0.8468  1.7613
 1240TIP3    H220293   3.534   6.389   0.845 -0.2856 -0.9060  0.8573
 1241TIP3   OH220294   1.106   2.182   6.088 -0.0549  0.0169 -0.4591
 1241TIP3    H120295   1.061   2.098   6.088 -0.1600  0.0649  0.0712
 1241TIP3    H220296   1.047   2.241   6.042  0.7079 -0.5358 -2.2111
 1242TIP3   OH220297   5.367   3.122   3.174 -0.7136 -0.2455 -0.4909
 1242TIP3    H120298   5.454   3.085   3.158 -0.7341  0.4913 -2.5704
 1242TIP3    H220299   5.343   3.164   3.091 -2.3028  1.1155  0.6050
 1243TIP3   OH220300   0.830   0.866   8.457  0.1211 -0.4386 -0.2323
 1243TIP3    H120301   0.832   0.839   8.365 -2.2029 -0.1263 -0.4516
 1243TIP3    H220302   0.889   0.941   8.462 -0.0477 -0.1912 -1.5803
 1244TIP3   OH220303   4.861   2.387   9.350 -0.4095 -0.3280  0.5241
 1244TIP3    H120304   4.806   2.399   9.273 -0.0325 -1.0834  0.1255
 1244TIP3    H220305   4.800   2.364   9.420 -0.7772  0.5743  0.5196
 1245TIP3   OH220306   2.669   4.487   1.328  0.2756  0.3197 -0.3513
 1245TIP3    H120307   2.689   4.394   1.330 -1.6156 -0.1722 -1.5022
 1245TIP3    H220308   2.574   4.491   1.339  0.3225  2.1184 -0.2773
 1246TIP3   OH220309   4.042   1.301   0.153  0.3538  0.1112  0.1234
 1246TIP3    H120310   4.049   1.256   0.238 -3.1512  0.9185  1.0138
 1246TIP3    H220311   4.096   1.379   0.163  0.1282  0.1159  1.5828
 1247TIP3   OH220312   5.727   6.203   8.751  0.3030  0.3261  0.5305
 1247TIP3    H120313   5.636   6.191   8.778  0.0419  0.3093 -0.3171
 1247TIP3    H220314   5.742   6.135   8.686  0.4768  1.1937 -0.3674
 1248TIP3   OH220315   2.921   0.501   3.659  0.2235 -0.1783 -0.3661
 1248TIP3    H120316   2.897   0.446   3.584 -2.6525  0.7360 -0.2104
 1248TIP3    H220317   2.933   0.588   3.623 -1.4648  0.3281  0.2393
 1249TIP3   OH220318   3.226   3.404   0.961 -0.2652  0.1596 -0.3258
 1249TIP3    H120319   3.189   3.484   0.925  0.9965 -0.1958 -2.6213
 1249TIP3    H220320   3.285   3.372   0.892  1.8119 -0.9751  1.8365
 1250TIP3   OH220321   4.094   0.506   7.231  0.2629 -0.3873  0.2016
 1250TIP3    H120322   4.177   0.540   7.263 -0.4510 -0.6897  2.5362
 1250TIP3    H220323   4.088   0.540   7.141  2.8056 -0.2585 -0.0019
 1251TIP3   OH220324   1.530   2.039   7.681 -0.1640 -0.0094  0.0344
 1251TIP3    H120325   1.545   1.945   7.690 -1.0726 -0.0875  0.9721
 1251TIP3    H220326   1.449   2.045   7.631  1.6442  0.3659 -3.0912
 1252TIP3   OH220327   4.794   1.570   2.690  0.0503 -0.2192  0.2244
 1252TIP3    H120328   4.869   1.575   2.749  0.6573 -0.1542 -0.5365
 1252TIP3    H220329   4.825   1.518   2.616 -0.4336  0.3591 -0.4049
 1253TIP3   OH220330   1.081   2.083   9.051 -0.1316 -0.0923 -0.0084
 1253TIP3    H120331   1.001   2.129   9.027  0.0208  0.8007  1.1376
 1253TIP3    H220332   1.100   2.028   8.975 -1.3542  0.3152 -0.6388
 1254TIP3   OH220333   0.496   0.585   8.125  0.6066 -0.0790  0.6021
 1254TIP3    H120334   0.555   0.640   8.177  1.1879  1.1239 -1.1872
 1254TIP3    H220335   0.554   0.539   8.064 -0.1205 -0.6060  0.2894
 1255TIP3   OH220336   5.130   1.362   0.396  0.2381 -0.1585  0.1388
 1255TIP3    H120337   5.173   1.323   0.472 -1.0165 -0.2565  0.8274
 1255TIP3    H220338   5.110   1.452   0.424  2.0852  0.6625 -1.0270
 1256TIP3   OH220339   3.214   1.526   9.273 -0.3009  0.2580 -0.6870
 1256TIP3    H120340   3.306   1.514   9.295  0.0520  3.1933 -0.1177
 1256TIP3    H220341   3.183   1.438   9.249  2.6506 -0.7836 -1.0876
 1257TIP3   OH220342   4.090   3.534   1.590 -0.3732 -0.4149 -0.2581
 1257TIP3    H120343   4.041   3.480   1.529 -0.5044  0.1637 -0.6686
 1257TIP3    H220344   4.117   3.473   1.659 -0.8828 -0.9151 -0.4914
 1258TIP3   OH220345   2.530   3.828   1.301 -0.3133 -0.0920 -0.0643
 1258TIP3    H120346   2.605   3.778   1.269 -1.3197 -1.1654 -0.8588
 1258TIP3    H220347   2.555   3.919   1.291 -0.2110 -0.3644 -3.2046
 1259TIP3   OH220348   3.887   0.804   2.061  0.0722  0.2183 -0.0461
 1259TIP3    H120349   3.894   0.709   2.054 -0.1240  0.0605  1.4882
 1259TIP3    H220350   3.976   0.836   2.048  0.1479 -0.1721 -0.5132
 1260TIP3   OH220351   1.819   5.607   0.830 -0.1214 -0.0907  0.1958
 1260TIP3    H120352   1.767   5.645   0.901  0.3236  0.5369  0.1928
 1260TIP3    H220353   1.817   5.673   0.761 -1.0760 -0.9611 -0.6402
 1261TIP3   OH220354   0.559   4.407   2.473 -0.0403 -0.0039  0.0881
 1261TIP3    H120355   0.536   4.387   2.383 -0.0373  2.0182 -0.3954
 1261TIP3    H220356   0.491   4.364   2.525 -0.1851 -0.9642 -0.8552
 1262TIP3   OH220357   1.362   0.330   2.059  0.3324  0.7695  0.2268
 1262TIP3    H120358   1.434   0.297   2.112  0.1317 -0.5830 -0.3109
 1262TIP3    H220359   1.400   0.343   1.972  1.2827  5.1671  1.0390
 1263TIP3   OH220360   2.513   1.020   1.894  0.8864 -0.2197  0.5638
 1263TIP3    H120361   2.490   1.111   1.876  0.4798 -0.5995 -1.0060
 1263TIP3    H220362   2.448   0.969   1.845  0.7856 -1.3651  1.8337
 1264TIP3   OH220363   5.236   1.294   0.663 -0.4611  0.2584 -0.0082
 1264TIP3    H120364   5.316   1.346   0.660 -0.0020 -0.4413 -0.0980
 1264TIP3    H220365   5.199   1.312   0.749 -0.1303  0.4687  0.0918
 1265TIP3   OH220366   2.423   4.489   2.270 -1.0140 -0.4309 -0.0982
 1265TIP3    H120367   2.418   4.464   2.178 -2.0326 -0.9684  0.0887
 1265TIP3    H220368   2.488   4.430   2.308  0.7765  0.9773 -0.8190
 1266TIP3   OH220369   4.817   4.691   0.194  0.7110  0.0134 -0.0988
 1266TIP3    H120370   4.740   4.698   0.138  0.8990  0.4890 -0.3090
 1266TIP3    H220371   4.828   4.779   0.231  0.1391 -0.4751  1.2988
 1267TIP3   OH220372   3.877   1.837   1.352  0.0963 -0.1145 -0.0426
 1267TIP3    H120373   3.903   1.805   1.438  1.2887  1.7856  0.3823
 1267TIP3    H220374   3.950   1.893   1.325 -0.7141  0.1371 -1.8408
 1268TIP3   OH220375   3.560   1.234   1.475 -0.3981 -0.5662 -0.4431
 1268TIP3    H120376   3.515   1.312   1.505  0.1140 -0.4026 -0.0821
 1268TIP3    H220377   3.544   1.168   1.543 -1.0494 -0.8642 -0.8730
 1269TIP3   OH220378   2.214   0.282   5.642 -0.1316 -0.2248  1.2209
 1269TIP3    H120379   2.190   0.272   5.550  0.9565 -2.2045  1.1064
 1269TIP3    H220380   2.140   0.242   5.689 -0.2222 -0.1203  1.1692
 1270TIP3   OH220381   6.423   4.454   6.858 -0.3344  0.1303 -0.0411
 1270TIP3    H120382   6.358   4.523   6.848 -0.4809  0.0757  0.4721
 1270TIP3    H220383   6.504   4.500   6.880 -0.7104  0.1064  1.5893
 1271TIP3   OH220384   3.833   2.289   6.094 -0.0912  0.3100  0.1550
 1271TIP3    H120385   3.879   2.342   6.159 -0.9584  1.1961  0.0742
 1271TIP3    H220386   3.900   2.265   6.030  0.4382  0.8111  0.5099
 1272TIP3   OH220387   2.085   2.482   0.852 -0.1567  0.5709  0.4336
 1272TIP3    H120388   1.992   2.460   0.863  0.1480 -0.5389  0.9972
 1272TIP3    H220389   2.112   2.517   0.936  0.5813 -1.7475  1.2513
 1273TIP3   OH220390   4.441   0.481   2.003 -0.1144 -0.8968  0.7405
 1273TIP3    H120391   4.461   0.559   1.951 -0.4997 -1.4224 -0.2177
 1273TIP3    H220392   4.466   0.505   2.093 -0.1511  0.2932  0.4468
 1274TIP3   OH220393   2.227   0.986   7.714 -0.5585  0.3801 -0.0939
 1274TIP3    H120394   2.287   1.059   7.705  0.0503  0.0140  0.9013
 1274TIP3    H220395   2.283   0.909   7.725 -1.1957 -0.1498 -0.4555
 1275TIP3   OH220396   5.138   4.228   1.520  0.3492 -0.6821 -0.6440
 1275TIP3    H120397   5.193   4.306   1.515  1.3690 -1.2292  0.9686
 1275TIP3    H220398   5.053   4.260   1.549  1.1721 -0.2510  1.5412
 1276TIP3   OH220399   6.029   1.652   0.563  0.2472 -0.2522  0.5980
 1276TIP3    H120400   6.062   1.574   0.608 -0.0897 -0.4625  0.4843
 1276TIP3    H220401   6.095   1.671   0.496  1.8871  1.3428  2.5246
 1277TIP3   OH220402   1.876   1.758   1.119  0.9041  0.0143 -0.6633
 1277TIP3    H120403   1.939   1.728   1.185 -1.2507  0.8034  1.9806
 1277TIP3    H220404   1.898   1.850   1.104  0.2330  0.3976  0.5456
 1278TIP3   OH220405   2.984   3.040   8.316 -0.4041 -0.1768  0.1998
 1278TIP3    H120406   2.992   3.132   8.343 -0.8895 -0.6169  2.0243
 1278TIP3    H220407   3.074   3.012   8.299 -0.2591  0.6455 -0.4332
 1279TIP3   OH220408   4.889   2.825   1.277 -0.4416 -0.2257  0.4049
 1279TIP3    H120409   4.907   2.908   1.321 -0.6446  0.6520 -1.0855
 1279TIP3    H220410   4.959   2.816   1.212  0.1955 -1.7803  1.2498
 1280TIP3   OH220411   3.565   0.240   7.468 -0.0613  0.2945  0.2450
 1280TIP3    H120412   3.494   0.209   7.413 -0.1852  1.2637 -0.1649
 1280TIP3    H220413   3.527   0.314   7.517  0.2869 -0.0175  1.0097
 1281TIP3   OH220414   6.445   0.288   1.529  0.2769  0.3216  0.4712
 1281TIP3    H120415   6.424   0.378   1.507 -0.8472 -0.1170 -0.3226
 1281TIP3    H220416   6.397   0.271   1.610 -0.5011  0.0742 -0.0321
 1282TIP3   OH220417   5.676   2.377   8.771  0.1888 -0.2232  0.6722
 1282TIP3    H120418   5.679   2.282   8.771 -2.3247 -0.3620  1.1135
 1282TIP3    H220419   5.705   2.401   8.682  1.8177 -1.2861  0.8668
 1283TIP3   OH220420   3.258   0.572   2.457 -0.2154  1.1751 -0.0907
 1283TIP3    H120421   3.296   0.617   2.381 -0.3796  1.5189  0.0272
 1283TIP3    H220422   3.287   0.482   2.448  1.0347  1.5273  0.2631
 1284TIP3   OH220423   2.760   6.437   7.895 -0.2642 -0.0510  0.5317
 1284TIP3    H120424   2.830   6.378   7.867 -2.1647 -1.2965 -1.9664
 1284TIP3    H220425   2.680   6.397   7.862 -2.0487  2.1352  1.8760
 1285TIP3   OH220426   1.925   0.298   1.386 -0.0245  0.1813  0.1586
 1285TIP3    H120427   1.867   0.224   1.400 -0.5956  0.5541 -0.2275
 1285TIP3    H220428   1.950   0.325   1.475  0.8892 -1.0035  0.2858
 1286TIP3   OH220429   3.762   0.806   1.066 -0.1275 -0.0263 -0.7424
 1286TIP3    H120430   3.774   0.829   0.974  2.5072  1.3420 -0.1769
 1286TIP3    H220431   3.777   0.888   1.113 -2.4919 -0.4506  0.9086
 1287TIP3   OH220432   1.698   1.812   6.860 -0.4004  0.1166 -0.0127
 1287TIP3    H120433   1.746   1.732   6.840 -1.7719 -0.8903  0.5743
 1287TIP3    H220434   1.665   1.799   6.949 -2.2396  0.4928 -0.6001
 1288TIP3   OH220435   0.073   2.552   8.446  0.5100 -0.5673 -0.2484
 1288TIP3    H120436   0.135   2.506   8.503  1.0451  0.2960 -0.1234
 1288TIP3    H220437   0.055   2.634   8.492 -0.3761 -0.6071 -0.5075
 1289TIP3   OH220438   3.212   4.685   8.460 -0.0580 -0.1905 -0.3129
 1289TIP3    H120439   3.194   4.593   8.443  0.1754 -0.0228 -1.5342
 1289TIP3    H220440   3.179   4.700   8.549  1.3809 -1.8503  0.5690
 1290TIP3   OH220441   4.187   5.327   2.934  0.7406  0.3778 -0.7900
 1290TIP3    H120442   4.158   5.268   3.004 -0.5465 -0.0683 -1.6556
 1290TIP3    H220443   4.108   5.372   2.906  0.8361 -0.7515 -3.1413
 1291TIP3   OH220444   5.090   1.024   1.326 -0.1224 -0.0598  0.3350
 1291TIP3    H120445   5.018   0.961   1.330  1.3115 -1.7636  0.0542
 1291TIP3    H220446   5.140   1.010   1.406 -0.3720  1.5178  0.8129
 1292TIP3   OH220447   4.602   5.264   2.373 -0.1473 -0.0069 -0.2160
 1292TIP3    H120448   4.552   5.307   2.304 -0.7493  0.1004  0.2774
 1292TIP3    H220449   4.539   5.207   2.417 -0.2424  1.1874  1.3260
 1293TIP3   OH220450   5.349   2.219   7.449 -0.2785 -0.2450  1.2346
 1293TIP3    H120451   5.426   2.276   7.447 -0.9102  0.6346 -0.4705
 1293TIP3    H220452   5.288   2.264   7.508  0.2902 -0.6586  2.1504
 1294TIP3   OH220453   4.890   3.490   7.643 -0.1385  0.3344  0.0280
 1294TIP3    H120454   4.942   3.418   7.679  0.3617  0.6984  0.0407
 1294TIP3    H220455   4.948   3.533   7.581  0.3342  2.0374  1.5703
 1295TIP3   OH220456   4.874   0.837   1.373  0.4700  0.0239 -0.3786
 1295TIP3    H120457   4.864   0.763   1.313 -0.2802 -1.4390  1.4528
 1295TIP3    H220458   4.894   0.797   1.458 -2.4502  1.7098  1.2628
 1296TIP3   OH220459   4.591   2.898   1.012  0.4875  0.5538  0.0534
 1296TIP3    H120460   4.679   2.933   1.001  0.4190  0.9273  0.6495
 1296TIP3    H220461   4.605   2.809   1.045  0.6451  1.2912  2.0910
 1297TIP3   OH220462   5.105   3.194   7.249  0.0291  0.6214  0.3302
 1297TIP3    H120463   5.134   3.270   7.198 -0.2526  0.8289  0.4729
 1297TIP3    H220464   5.139   3.118   7.201 -0.4181  0.8069 -0.2957
 1298TIP3   OH220465   4.659   0.361   1.824  0.0900 -0.6463 -0.0050
 1298TIP3    H120466   4.581   0.366   1.879  0.1697  0.2358  0.0463
 1298TIP3    H220467   4.650   0.278   1.777 -1.0684 -0.3779 -0.2850
 1299TIP3   OH220468   1.827   1.450   2.239  0.1280  0.4460 -0.0410
 1299TIP3    H120469   1.770   1.520   2.270 -0.4830 -1.0319  2.4327
 1299TIP3    H220470   1.892   1.439   2.308 -0.9557 -2.6422  0.6691
 1300TIP3   OH220471   1.710   6.185   6.835 -0.0198  0.1224  0.1658
 1300TIP3    H120472   1.708   6.089   6.836  1.0126  0.0518 -1.4232
 1300TIP3    H220473   1.736   6.208   6.746  0.7705  1.8714  0.8056
 1301TIP3   OH220474   2.652   0.524   6.693  0.2542 -0.1496 -0.1087
 1301TIP3    H120475   2.587   0.483   6.636  1.1592  0.1345 -1.4005
 1301TIP3    H220476   2.726   0.543   6.635  0.6707  1.4298  0.8627
 1302TIP3   OH220477   3.672   4.801   1.941  0.1963 -0.3369  0.5233
 1302TIP3    H120478   3.713   4.742   2.004  2.3397  1.7514  1.2426
 1302TIP3    H220479   3.608   4.851   1.992  0.5401  0.0254  0.5990
 1303TIP3   OH220480   0.285   2.575   0.205  0.0760 -0.2819  0.2143
 1303TIP3    H120481   0.191   2.565   0.190  0.1774 -2.6486  0.6542
 1303TIP3    H220482   0.318   2.617   0.125 -1.3753  0.8307  0.1759
 1304TIP3   OH220483   5.577   5.417   0.892  0.3545  0.1747  0.3055
 1304TIP3    H120484   5.561   5.473   0.816  0.8115 -1.6197 -1.1920
 1304TIP3    H220485   5.662   5.447   0.925  0.4831  0.5309 -0.3161
 1305TIP3   OH220486   2.905   0.128   8.693 -0.3769 -0.4068 -0.3907
 1305TIP3    H120487   2.950   0.051   8.661 -2.4134 -1.7051 -0.3011
 1305TIP3    H220488   2.869   0.170   8.614  0.9383  0.6291 -0.4669
 1306TIP3   OH220489   2.282   0.751   8.898 -0.3188 -0.4719  0.6590
 1306TIP3    H120490   2.245   0.667   8.870  0.5090 -0.2526 -1.3039
 1306TIP3    H220491   2.216   0.815   8.872 -0.3669 -0.4043  0.9449
 1307TIP3   OH220492   5.024   2.001   8.346  0.3004 -0.6809  0.1554
 1307TIP3    H120493   5.030   2.045   8.431  3.8680  1.4874 -0.9821
 1307TIP3    H220494   5.046   1.910   8.364 -0.3636 -0.5677  1.6838
 1308TIP3   OH220495   5.991   2.733   8.469 -0.0466  0.4772  0.6420
 1308TIP3    H120496   6.042   2.755   8.547  0.7608  0.2102  0.1956
 1308TIP3    H220497   6.054   2.731   8.398 -0.6553 -0.0025  0.1010
 1309TIP3   OH220498   6.031   5.123   9.292  0.3916  0.2461 -0.3871
 1309TIP3    H120499   5.946   5.160   9.318 -0.3271 -1.0994 -0.6955
 1309TIP3    H220500   6.029   5.125   9.196  1.1750  1.1810 -0.3964
 1310TIP3   OH220501   1.615   4.499   2.086  0.2034 -0.3223  0.1995
 1310TIP3    H120502   1.689   4.439   2.091  0.8920  0.3441 -1.3040
 1310TIP3    H220503   1.543   4.445   2.051  0.9307 -0.2268 -1.5394
 1311TIP3   OH220504   1.411   4.675   3.251  0.1235 -0.0101 -0.0770
 1311TIP3    H120505   1.429   4.628   3.332 -0.5111  0.7382  0.5097
 1311TIP3    H220506   1.356   4.616   3.200 -1.5692  0.4735  1.1066
 1312TIP3   OH220507   1.058   1.061   0.721 -0.1237 -0.1521 -0.3934
 1312TIP3    H120508   1.132   1.114   0.751 -0.7058  2.0277 -2.5198
 1312TIP3    H220509   1.099   0.983   0.681  0.8737 -0.1384  0.5551
 1313TIP3   OH220510   0.752   0.533   0.741 -0.5396  0.3789  0.3258
 1313TIP3    H120511   0.690   0.464   0.767 -1.5922  0.8896 -0.7336
 1313TIP3    H220512   0.696   0.602   0.705  0.6405  1.0036 -0.3431
 1314TIP3   OH220513   0.073   5.568   2.607  0.1467 -0.1031  0.6066
 1314TIP3    H120514  -0.008   5.606   2.572  0.8708  0.8688 -0.0808
 1314TIP3    H220515   0.110   5.637   2.662  1.7394  0.4570 -1.0585
 1315TIP3   OH220516   5.943   0.703   7.709  0.1528 -0.4529  1.0863
 1315TIP3    H120517   5.937   0.741   7.797  1.7597 -0.8305  1.3924
 1315TIP3    H220518   5.868   0.739   7.662  0.0536  0.8628  2.1977
 1316TIP3   OH220519   2.873   0.956   6.314  0.3775 -0.0471 -0.6290
 1316TIP3    H120520   2.910   0.974   6.401  0.6642 -0.1196 -0.7363
 1316TIP3    H220521   2.815   0.881   6.329  1.3265 -0.8108 -0.7211
 1317TIP3   OH220522   0.840   3.407   8.811 -0.0674  0.7511 -0.5718
 1317TIP3    H120523   0.881   3.431   8.894 -0.1362  1.4359 -0.7383
 1317TIP3    H220524   0.902   3.346   8.771  0.3474  1.0520 -0.3913
 1318TIP3   OH220525   0.417   4.845   6.901  0.5110  0.3593  0.5343
 1318TIP3    H120526   0.447   4.822   6.988  0.9952 -2.1187 -0.2260
 1318TIP3    H220527   0.471   4.921   6.876  2.4574 -0.7114  1.2682
 1319TIP3   OH220528   1.352   6.254   5.955  0.2576 -0.0714 -0.2185
 1319TIP3    H120529   1.321   6.344   5.947  0.2407  0.0192  0.7705
 1319TIP3    H220530   1.442   6.257   5.923  0.2824  0.3073 -0.1221
 1320TIP3   OH220531   2.562   1.540   1.487  0.2344 -0.0262 -0.2256
 1320TIP3    H120532   2.525   1.614   1.440 -0.4006  0.8651  1.6020
 1320TIP3    H220533   2.509   1.465   1.460 -0.1203  0.4664 -0.9080
 1321TIP3   OH220534   0.734   1.632   9.097  0.5974 -0.0428 -0.2611
 1321TIP3    H120535   0.722   1.641   9.002 -1.7395  2.8999  0.1685
 1321TIP3    H220536   0.690   1.550   9.119 -2.3593  1.1405 -1.3310
 1322TIP3   OH220537   3.799   3.049   0.884 -0.3314 -0.2471 -0.1001
 1322TIP3    H120538   3.789   2.985   0.813 -0.0097 -0.3602 -0.0444
 1322TIP3    H220539   3.887   3.033   0.918  0.4373  1.3984 -1.2303
 1323TIP3   OH220540   2.369   1.991   1.330 -0.0719  0.3076 -0.4750
 1323TIP3    H120541   2.307   2.051   1.373  0.0828 -0.4307  0.8150
 1323TIP3    H220542   2.360   2.012   1.236 -1.8814  0.5901 -0.2871
 1324TIP3   OH220543   2.054   4.129   8.103 -0.2944  0.4576 -0.0079
 1324TIP3    H120544   2.105   4.139   8.022  0.6957 -0.1314  0.5172
 1324TIP3    H220545   1.989   4.200   8.099 -0.4037  0.3165 -1.4044
 1325TIP3   OH220546   1.199   1.111   1.865 -0.1766  0.1841 -0.2028
 1325TIP3    H120547   1.246   1.139   1.944 -0.8553 -0.6003  0.5069
 1325TIP3    H220548   1.150   1.033   1.893 -2.7292  1.5202 -0.5748
 1326TIP3   OH220549   5.280   0.343   7.720 -0.2399  0.0788 -0.2217
 1326TIP3    H120550   5.267   0.438   7.724  1.3617  0.2872  0.8845
 1326TIP3    H220551   5.241   0.310   7.801  1.0066  0.0587  0.3907
 1327TIP3   OH220552   0.817   2.953   1.393  0.3206 -0.2451  0.0120
 1327TIP3    H120553   0.738   2.904   1.372 -0.1850 -0.0954  1.4630
 1327TIP3    H220554   0.828   3.014   1.320 -1.4483  0.3813  0.2250
 1328TIP3   OH220555   4.338   3.876   9.051 -0.0093  0.1489 -0.3752
 1328TIP3    H120556   4.247   3.867   9.077  0.7901  0.6438  3.1800
 1328TIP3    H220557   4.379   3.794   9.081  0.9816  0.6248 -0.4034
 1329TIP3   OH220558   6.025   4.318   8.323 -0.6137  0.2512 -0.2594
 1329TIP3    H120559   6.088   4.371   8.372  0.2981 -1.2234  0.1942
 1329TIP3    H220560   5.955   4.301   8.386 -1.8846  2.4356 -0.9444
 1330TIP3   OH220561   2.283   4.865   1.860  0.2462  0.0988 -0.2714
 1330TIP3    H120562   2.318   4.781   1.890  0.7159  0.4673  0.2135
 1330TIP3    H220563   2.188   4.857   1.874  0.3064 -0.2836 -0.0616
 1331TIP3   OH220564   4.816   2.610   7.973 -0.1696  0.4619 -0.3843
 1331TIP3    H120565   4.890   2.564   8.012 -0.9741 -1.3170 -0.8761
 1331TIP3    H220566   4.844   2.631   7.884 -0.0651  0.2530 -0.4010
 1332TIP3   OH220567   1.253   2.721   0.848  0.5421  0.7343  0.1847
 1332TIP3    H120568   1.251   2.721   0.944  0.6640 -1.0753  0.2112
 1332TIP3    H220569   1.163   2.738   0.822  0.0194 -1.1026  0.6690
 1333TIP3   OH220570   2.390   1.248   8.255 -0.3980  0.0597  0.0132
 1333TIP3    H120571   2.300   1.226   8.278  0.2430 -1.1670  1.5877
 1333TIP3    H220572   2.397   1.227   8.162 -1.6559 -0.0821 -0.0628
 1334TIP3   OH220573   1.033   5.956   0.747  0.0897 -0.1573 -0.0917
 1334TIP3    H120574   1.085   5.884   0.709 -2.4333 -2.4433  0.4404
 1334TIP3    H220575   1.013   6.013   0.672  1.0645 -0.7174 -0.8034
 1335TIP3   OH220576   6.228   6.354   0.448  0.0059 -0.0057 -0.1620
 1335TIP3    H120577   6.274   6.405   0.515 -1.1724 -0.1904  0.8391
 1335TIP3    H220578   6.150   6.321   0.493 -0.8766 -0.0619 -1.6711
 1336TIP3   OH220579   1.649   3.905   1.407 -0.6151 -0.1998 -0.2007
 1336TIP3    H120580   1.733   3.945   1.387  1.2165 -2.8026  1.5510
 1336TIP3    H220581   1.633   3.928   1.499 -0.5653 -1.6725  0.1987
 1337TIP3   OH220582   3.463   4.557   7.765  0.2002  0.1966  0.2409
 1337TIP3    H120583   3.557   4.575   7.768 -0.0167  1.3655  0.4920
 1337TIP3    H220584   3.425   4.632   7.720 -0.5050 -0.8053 -0.9116
 1338TIP3   OH220585   6.363   5.166   1.941 -0.3105  0.4665  0.1730
 1338TIP3    H120586   6.424   5.239   1.923  1.2039 -0.3007  1.8806
 1338TIP3    H220587   6.308   5.198   2.012 -0.0057  0.1487  0.5548
 1339TIP3   OH220588   0.230   3.904   9.253 -0.2996  0.7252  0.8844
 1339TIP3    H120589   0.217   3.888   9.346  0.8665  2.2386  1.3480
 1339TIP3    H220590   0.325   3.905   9.242 -0.3966 -0.8977 -0.6241
 1340TIP3   OH220591   2.557   0.640   7.175 -0.0572 -0.2008 -0.2320
 1340TIP3    H120592   2.568   0.708   7.242 -1.9557 -0.0605 -0.0027
 1340TIP3    H220593   2.537   0.560   7.225 -0.1770 -0.3860 -0.5751
 1341TIP3   OH220594   6.237   3.916   1.587 -0.4299 -0.1920 -0.1919
 1341TIP3    H120595   6.220   3.842   1.645 -0.8345 -1.0746 -1.4003
 1341TIP3    H220596   6.165   3.915   1.524  0.8611 -0.3413 -1.7565
 1342TIP3   OH220597   2.401   6.341   0.805  0.0469 -0.6756 -0.1302
 1342TIP3    H120598   2.319   6.342   0.854 -0.3570  0.5893 -0.7768
 1342TIP3    H220599   2.457   6.404   0.851 -0.2276  0.2902 -1.0604
 1343TIP3   OH220600   3.715   5.495   2.721  0.2584  0.5808  0.2433
 1343TIP3    H120601   3.707   5.589   2.734  0.1666  0.4917  0.8399
 1343TIP3    H220602   3.625   5.463   2.725  0.4433  0.1959  2.2148
 1344TIP3   OH220603   3.399   1.961   2.717 -0.4259 -0.3773  0.0619
 1344TIP3    H120604   3.431   2.020   2.786  1.1297  0.6111 -1.4209
 1344TIP3    H220605   3.396   1.875   2.758 -1.0296  0.4143  1.7819
 1345TIP3   OH220606   5.943   2.659   8.810 -0.2130  0.2007  0.8898
 1345TIP3    H120607   5.907   2.593   8.751 -0.9769  1.0577  0.3663
 1345TIP3    H220608   6.030   2.678   8.775 -0.9073  1.1709 -0.3816
 1346TIP3   OH220609   2.434   1.862   2.180 -0.7392  0.5215 -0.6311
 1346TIP3    H120610   2.432   1.802   2.106  0.8046  1.2286 -1.2938
 1346TIP3    H220611   2.526   1.866   2.207 -1.2153  0.4865  1.1813
 1347TIP3   OH220612   2.444   1.727   1.041 -0.1794  0.3081  0.0465
 1347TIP3    H120613   2.481   1.708   0.955 -2.5227  0.1381 -0.9861
 1347TIP3    H220614   2.463   1.820   1.055  1.1626  0.0853 -0.1090
 1348TIP3   OH220615   5.646   2.530   1.086  0.5960  0.0952 -0.3310
 1348TIP3    H120616   5.603   2.609   1.054 -2.5291 -1.4662 -0.3329
 1348TIP3    H220617   5.654   2.474   1.009  2.1722  0.1052 -0.2032
 1349TIP3   OH220618   4.035   4.543   9.326  0.4084  0.3402  0.0779
 1349TIP3    H120619   4.128   4.521   9.323 -0.0189 -1.4714 -1.0339
 1349TIP3    H220620   3.996   4.492   9.256 -1.4837  0.8356  0.7247
 1350TIP3   OH220621   4.706   5.016   2.269  0.0473 -0.1424  0.1004
 1350TIP3    H120622   4.627   5.067   2.250  0.2629 -0.3167 -1.4038
 1350TIP3    H220623   4.767   5.080   2.306 -0.6246  0.0815  0.8612
 1351TIP3   OH220624   5.260   0.046   8.541 -0.8684  0.1859  0.1341
 1351TIP3    H120625   5.298   0.096   8.469 -1.5590  0.4525 -0.0542
 1351TIP3    H220626   5.222  -0.032   8.500 -0.8538  0.1053  0.2706
 1352TIP3   OH220627   0.433   3.799   7.009  0.0951 -0.0121  0.5397
 1352TIP3    H120628   0.507   3.849   7.043  1.4202  0.8608 -3.1729
 1352TIP3    H220629   0.474   3.727   6.960 -1.5007  0.1624 -1.1250
 1353TIP3   OH220630   3.717   2.215   7.665  0.2503  0.6259 -0.3791
 1353TIP3    H120631   3.752   2.296   7.630 -0.4829  1.1550  0.0937
 1353TIP3    H220632   3.759   2.205   7.750  0.1110  0.6631 -0.3061
 1354TIP3   OH220633   2.950   1.630   8.681  0.6802 -0.2702  0.8753
 1354TIP3    H120634   2.943   1.701   8.616  0.8779  0.4671  1.6462
 1354TIP3    H220635   2.962   1.551   8.628 -1.5503 -0.0461 -0.1167
 1355TIP3   OH220636   4.989   1.751   7.808  0.0571  0.3189 -0.3164
 1355TIP3    H120637   5.042   1.793   7.740  1.4639  0.0351  0.5457
 1355TIP3    H220638   5.042   1.677   7.837 -0.2988  0.6852  1.3728
 1356TIP3   OH220639   2.694   2.216   9.020 -0.2591  0.3641  0.5001
 1356TIP3    H120640   2.679   2.227   9.113 -1.0390 -0.4799  0.4818
 1356TIP3    H220641   2.625   2.267   8.978 -0.5427 -0.1059  0.3927
 1357TIP3   OH220642   2.000   2.985   0.918 -0.2080  0.0914 -0.6078
 1357TIP3    H120643   2.045   2.907   0.885 -0.1956  0.1386 -0.7027
 1357TIP3    H220644   1.913   2.954   0.943 -0.0837 -0.0226 -0.3160
 1358TIP3   OH220645   0.249   5.063   6.479 -0.4052  0.6343 -0.2157
 1358TIP3    H120646   0.340   5.090   6.467 -0.2201  1.4426  2.4961
 1358TIP3    H220647   0.255   4.985   6.534 -1.3108 -0.5282 -1.6940
 1359TIP3   OH220648   3.697   0.160   1.212  0.3766 -0.9058  0.0303
 1359TIP3    H120649   3.642   0.198   1.143  0.4119 -1.6348 -0.4140
 1359TIP3    H220650   3.783   0.149   1.169  1.2229  1.2344  1.0242
 1360TIP3   OH220651   3.150   3.052   0.785  0.1078  0.0505 -0.1886
 1360TIP3    H120652   3.142   3.135   0.739 -5.6608 -0.3262 -0.5893
 1360TIP3    H220653   3.194   2.993   0.723  0.4155  1.6932 -1.5769
 1361TIP3   OH220654   0.627   3.871   0.932  0.1998  0.0782  0.7900
 1361TIP3    H120655   0.640   3.798   0.993 -0.8585  0.4550  1.4893
 1361TIP3    H220656   0.619   3.829   0.846  2.3970 -0.4150  0.7651
 1362TIP3   OH220657   1.530   2.265   1.508  0.5942 -0.5997 -0.0656
 1362TIP3    H120658   1.545   2.295   1.419  1.3509 -1.2501 -0.1671
 1362TIP3    H220659   1.597   2.311   1.560  1.2732 -1.5218 -0.1078
 1363TIP3   OH220660   5.559   2.343   9.307 -0.0166  0.2706 -0.3712
 1363TIP3    H120661   5.602   2.321   9.390 -0.9673 -0.7642 -0.1252
 1363TIP3    H220662   5.607   2.293   9.241 -2.0789 -2.6620  0.1660
 1364TIP3   OH220663   1.252   4.155   0.765 -0.3765 -0.8463 -0.1893
 1364TIP3    H120664   1.309   4.204   0.825  0.6090 -1.8372 -0.2739
 1364TIP3    H220665   1.165   4.163   0.803 -0.0735  0.0889  0.3568
 1365TIP3   OH220666   5.128   2.144   6.788  0.3126 -0.4507 -0.2167
 1365TIP3    H120667   5.205   2.175   6.739 -0.3252  0.1519 -0.8716
 1365TIP3    H220668   5.097   2.069   6.738  0.1024 -0.2942 -0.3255
 1366TIP3   OH220669   5.354   2.564   0.246  0.3720  0.6259 -0.4845
 1366TIP3    H120670   5.261   2.544   0.235  0.1506  1.0382  0.4935
 1366TIP3    H220671   5.356   2.632   0.313  1.3679  0.7950 -0.6677
 1367TIP3   OH220672   1.763   1.730   2.807 -0.3380 -0.8184  0.0608
 1367TIP3    H120673   1.829   1.722   2.876 -1.0357 -1.6653  0.6564
 1367TIP3    H220674   1.688   1.771   2.850 -0.5335 -0.7246 -0.3682
 1368TIP3   OH220675   0.072   0.639   1.536 -0.0594  0.6185 -0.0195
 1368TIP3    H120676   0.131   0.631   1.461 -0.5165 -0.9540 -0.2464
 1368TIP3    H220677   0.130   0.646   1.612  0.4288 -0.5547 -0.2736
 1369TIP3   OH220678   1.549   4.931   7.966 -0.1503  0.0820 -0.3110
 1369TIP3    H120679   1.478   4.995   7.961 -0.1500  0.0839 -0.2878
 1369TIP3    H220680   1.509   4.854   8.008 -1.0258 -1.1087 -3.1071
 1370TIP3   OH220681   6.242   4.471   7.551  0.1999  0.1542  0.1857
 1370TIP3    H120682   6.273   4.513   7.631 -1.0137 -0.6019  1.0974
 1370TIP3    H220683   6.152   4.501   7.541 -0.2993 -1.2521  0.1925
 1371TIP3   OH220684   1.128   5.285   3.195  0.2031 -0.1626 -0.7365
 1371TIP3    H120685   1.038   5.310   3.174 -0.2230 -1.2211 -0.2152
 1371TIP3    H220686   1.176   5.368   3.196 -1.1424  0.6593  0.8471
 1372TIP3   OH220687   4.517   5.625   0.236  0.2776  0.0974 -0.3977
 1372TIP3    H120688   4.540   5.590   0.150 -0.8132 -1.5637 -0.0651
 1372TIP3    H220689   4.433   5.584   0.258  0.5741  0.3853  1.5049
 1373TIP3   OH220690   0.593   0.217   7.654 -0.4009 -0.3819 -0.2887
 1373TIP3    H120691   0.574   0.307   7.628 -1.6168 -0.7755 -0.8260
 1373TIP3    H220692   0.618   0.224   7.747 -0.5743  0.4880 -0.3004
 1374TIP3   OH220693   3.310   3.025   2.168 -0.1033 -0.2155  0.0706
 1374TIP3    H120694   3.319   3.013   2.074  0.9087 -1.5241  0.3135
 1374TIP3    H220695   3.383   2.976   2.206 -0.8136 -0.1756  1.5590
 1375TIP3   OH220696   6.107   2.676   0.282 -0.2103  0.1354 -0.0198
 1375TIP3    H120697   6.123   2.734   0.356 -0.1678  1.5180 -1.0782
 1375TIP3    H220698   6.192   2.669   0.238  0.1461 -1.8965  0.8565
 1376TIP3   OH220699   0.718   5.770   7.622  0.2857 -0.0462  0.0623
 1376TIP3    H120700   0.644   5.764   7.682 -1.1736 -1.8156 -1.7589
 1376TIP3    H220701   0.680   5.808   7.542  1.4251 -0.5888 -0.7668
 1377TIP3   OH220702   5.854   2.507   0.886  0.0977 -0.3766 -0.7694
 1377TIP3    H120703   5.931   2.477   0.934 -0.5187  1.8065  1.8574
 1377TIP3    H220704   5.887   2.577   0.830 -0.0520  1.6419  1.4994
 1378TIP3   OH220705   2.238   6.274   3.309 -0.1957  0.2781  0.0316
 1378TIP3    H120706   2.289   6.211   3.259 -0.0309 -0.5672  1.2281
 1378TIP3    H220707   2.148   6.244   3.301 -0.0780 -0.3503  0.9006
 1379TIP3   OH220708   0.148   5.201  -0.014  0.1161 -0.4673  0.6028
 1379TIP3    H120709   0.124   5.221   0.076 -0.8108 -3.7103  1.2333
 1379TIP3    H220710   0.236   5.163  -0.008  0.4575  0.2106 -0.0127
 1380TIP3   OH220711   5.118   3.745   1.382 -0.4345 -0.3808 -0.1968
 1380TIP3    H120712   5.105   3.826   1.431  0.8949 -0.7710  0.8648
 1380TIP3    H220713   5.112   3.772   1.290  0.2003  0.9741  0.1240
 1381TIP3   OH220714   1.141   5.135   2.898  0.3076 -0.9607  0.4920
 1381TIP3    H120715   1.186   5.137   2.982  1.6785  0.7915 -0.2260
 1381TIP3    H220716   1.068   5.197   2.908  0.5831 -0.6088  0.3439
 1382TIP3   OH220717   1.491   3.688   0.297 -0.5642 -0.5577 -0.0312
 1382TIP3    H120718   1.586   3.702   0.304 -0.4251 -1.7441  0.8463
 1382TIP3    H220719   1.463   3.747   0.227  0.7999 -0.0758 -0.2036
 1383TIP3   OH220720   6.346   5.031   6.058 -0.0516  0.4075  0.0703
 1383TIP3    H120721   6.259   5.028   6.097 -0.1969  2.2791  0.0063
 1383TIP3    H220722   6.405   4.997   6.126 -0.5063  1.9484  1.2921
 1384TIP3   OH220723   5.079   1.173   8.419  0.4604  0.0282 -0.4048
 1384TIP3    H120724   5.138   1.108   8.381  0.0246 -0.3459 -0.4488
 1384TIP3    H220725   5.109   1.182   8.510  0.6805 -0.0477 -0.4701
 1385TIP3   OH220726   1.207   1.504   2.132  0.2928 -0.1921  0.0348
 1385TIP3    H120727   1.227   1.562   2.205  1.2608  0.3893 -0.6801
 1385TIP3    H220728   1.263   1.534   2.060 -0.3559 -0.9939 -0.8368
 1386TIP3   OH220729   3.229   2.148   6.268  0.1093 -0.2878  0.2036
 1386TIP3    H120730   3.170   2.199   6.323 -0.3570 -1.7026  1.0712
 1386TIP3    H220731   3.308   2.136   6.321  0.5674  0.2563 -0.3399
 1387TIP3   OH220732   5.193   4.591   2.872 -0.0543 -0.7946 -0.1006
 1387TIP3    H120733   5.285   4.620   2.873 -0.0344 -0.8550 -0.1442
 1387TIP3    H220734   5.194   4.509   2.922 -0.0469 -0.9060 -0.2838
 1388TIP3   OH220735   2.094   3.792   9.303  0.2353 -0.1286  0.3125
 1388TIP3    H120736   2.068   3.700   9.296  0.7169 -0.4146  1.9705
 1388TIP3    H220737   2.041   3.836   9.236 -0.0368 -1.5837 -0.4833
 1389TIP3   OH220738   5.555   2.693   1.323  0.0023 -0.5697  0.0871
 1389TIP3    H120739   5.527   2.680   1.233  0.7407 -0.4917 -0.1625
 1389TIP3    H220740   5.629   2.633   1.334  2.6209  2.2675 -0.6854
 1390TIP3   OH220741   3.105   5.814   8.493  0.1898 -0.5867 -0.1333
 1390TIP3    H120742   3.115   5.728   8.454  1.7609 -0.5943  0.2369
 1390TIP3    H220743   3.138   5.875   8.427 -2.2044 -0.0845 -0.9745
 1391TIP3   OH220744   1.624   4.388   1.762 -0.2504 -0.2813  0.6289
 1391TIP3    H120745   1.643   4.419   1.674 -0.5985 -1.4943  0.1031
 1391TIP3    H220746   1.534   4.418   1.778 -1.2561 -2.4125 -0.5783
 1392TIP3   OH220747   1.678   0.921   0.569 -0.1997  0.1257 -0.0404
 1392TIP3    H120748   1.672   0.932   0.664  2.7956  0.6213  0.1783
 1392TIP3    H220749   1.682   0.827   0.555  1.2074  0.0735  0.5448
 1393TIP3   OH220750   5.675   2.616   7.833  0.3052 -0.2834  0.9957
 1393TIP3    H120751   5.713   2.695   7.870  1.0112 -0.0252 -0.2289
 1393TIP3    H220752   5.677   2.630   7.738 -0.2136 -1.4695  0.7886
 1394TIP3   OH220753   3.822   1.588   2.073  0.1825 -0.5611  0.0731
 1394TIP3    H120754   3.849   1.533   2.000  1.1355  0.6720 -0.5404
 1394TIP3    H220755   3.734   1.617   2.050 -0.2384 -1.5972  0.2941
 1395TIP3   OH220756   4.346   0.642   6.836  0.1720 -0.4992  0.5577
 1395TIP3    H120757   4.353   0.548   6.852 -0.0989 -0.5877  0.1446
 1395TIP3    H220758   4.337   0.651   6.742 -2.9248 -0.2704  0.7535
 1396TIP3   OH220759   4.560   1.091   7.421 -0.1871  0.3338 -0.3671
 1396TIP3    H120760   4.566   1.157   7.352 -1.3843  0.9675  0.1038
 1396TIP3    H220761   4.589   1.010   7.379 -0.3191  0.8304 -1.4502
 1397TIP3   OH220762   4.132   4.604   8.135  0.2008  0.2171 -0.6916
 1397TIP3    H120763   4.076   4.652   8.073  0.2002 -1.4361 -2.0497
 1397TIP3    H220764   4.203   4.570   8.080  0.3264 -1.1093  0.2628
 1398TIP3   OH220765   1.474   4.125   6.482 -0.0209 -0.5627 -0.2975
 1398TIP3    H120766   1.535   4.062   6.445 -0.3839 -0.3787 -1.2358
 1398TIP3    H220767   1.398   4.121   6.425 -1.1644 -1.2419  1.2211
 1399TIP3   OH220768   1.479   5.716   1.486  0.1619 -0.3369  0.4458
 1399TIP3    H120769   1.441   5.629   1.478  0.3246 -0.3685 -0.0407
 1399TIP3    H220770   1.406   5.775   1.466  0.1255 -0.3706  0.4798
 1400TIP3   OH220771   3.690   3.963   8.823  0.6432 -0.0177 -0.7982
 1400TIP3    H120772   3.717   3.872   8.814 -1.6822 -0.6121 -2.6105
 1400TIP3    H220773   3.757   4.012   8.775  0.1883 -1.1507 -2.7033
 1401TIP3   OH220774   5.811   2.068   0.253  0.3346 -0.2579 -0.0373
 1401TIP3    H120775   5.822   1.974   0.238  0.5016 -0.2349 -0.0615
 1401TIP3    H220776   5.724   2.075   0.293  0.5693 -0.4882  0.5355
 1402TIP3   OH220777   1.930   2.353   8.814  0.1729 -0.2105 -0.1314
 1402TIP3    H120778   1.971   2.275   8.851 -1.2177 -1.3682 -0.9280
 1402TIP3    H220779   1.952   2.349   8.721 -0.5504 -0.0882 -0.3160
 1403TIP3   OH220780   3.191   2.123   6.661 -0.2147  0.1909 -0.2256
 1403TIP3    H120781   3.282   2.152   6.658 -0.4258  0.8162 -1.7217
 1403TIP3    H220782   3.149   2.167   6.586 -1.7231 -0.1597  0.3670
 1404TIP3   OH220783   1.150   4.616   8.026  0.3055  0.3189 -0.2500
 1404TIP3    H120784   1.176   4.540   8.079 -1.0924  0.1957  0.2820
 1404TIP3    H220785   1.074   4.586   7.977 -0.1641  1.3264 -0.1593
 1405TIP3   OH220786   6.096   2.723   0.719  0.5052 -0.4200 -0.5785
 1405TIP3    H120787   6.166   2.665   0.748 -0.3785 -0.9956  0.4973
 1405TIP3    H220788   6.132   2.767   0.642  1.7059 -1.3641 -0.5985
 1406TIP3   OH220789   5.106   2.013   0.881  0.4770  0.3190  0.2200
 1406TIP3    H120790   5.050   1.952   0.833  0.5258  0.0453  0.5065
 1406TIP3    H220791   5.082   1.999   0.973  1.2510 -0.0380  0.3721
 1407TIP3   OH220792   3.830   6.007   0.680 -0.4527  0.0223  0.2520
 1407TIP3    H120793   3.839   5.954   0.601 -1.2097 -0.9545  0.8080
 1407TIP3    H220794   3.760   6.069   0.659  0.6167  1.0207 -0.4954
 1408TIP3   OH220795   2.528   2.623   1.971  0.4194 -0.2698 -0.1242
 1408TIP3    H120796   2.552   2.710   1.941 -2.0463 -0.0661 -1.8784
 1408TIP3    H220797   2.505   2.634   2.063  0.0921  0.9612 -0.3409
 1409TIP3   OH220798   5.501   4.487   0.417 -0.2042 -0.0054  0.6405
 1409TIP3    H120799   5.461   4.405   0.388  1.3582 -0.7507  0.4981
 1409TIP3    H220800   5.470   4.552   0.353 -0.3918 -0.7452 -0.0367
 1410TIP3   OH220801   1.092   0.290   1.710  0.0527 -0.3401 -0.2308
 1410TIP3    H120802   1.084   0.306   1.616  0.6887 -2.6301 -0.7244
 1410TIP3    H220803   1.153   0.217   1.718  0.6077  0.2636  2.0296
 1411TIP3   OH220804   2.838   5.261   0.335  0.8997 -0.8578 -0.2395
 1411TIP3    H120805   2.796   5.344   0.358 -0.1562 -1.7957  1.4136
 1411TIP3    H220806   2.837   5.259   0.239 -1.1457  0.0382 -0.2881
 1412TIP3   OH220807   6.336   4.589   7.157 -0.1750  0.1112 -0.1297
 1412TIP3    H120808   6.373   4.631   7.234  0.5658 -0.7061 -0.0227
 1412TIP3    H220809   6.346   4.654   7.087  0.7326  0.2179  0.0817
 1413TIP3   OH220810   4.634   6.041   1.088  0.6889 -0.0658 -0.4345
 1413TIP3    H120811   4.688   6.072   1.161  2.1786 -1.4493 -0.8919
 1413TIP3    H220812   4.682   6.067   1.010 -0.9940  1.5853 -1.0105
 1414TIP3   OH220813   5.205   0.963   2.361 -0.8441  0.3274 -0.3876
 1414TIP3    H120814   5.269   1.027   2.330 -1.3814  1.0254 -0.0609
 1414TIP3    H220815   5.127   0.980   2.309 -1.2586  0.4877  0.2858
 1415TIP3   OH220816   3.188   1.444   8.547  0.2779 -0.4834 -0.1123
 1415TIP3    H120817   3.220   1.534   8.548 -0.0122 -0.3726 -0.4967
 1415TIP3    H220818   3.178   1.421   8.640 -0.9369  0.3504 -0.0112
 1416TIP3   OH220819   0.180   1.628   0.384 -0.1296 -0.2035 -0.3416
 1416TIP3    H120820   0.233   1.658   0.458  1.3794 -0.9940 -1.0524
 1416TIP3    H220821   0.093   1.616   0.421  0.2622  0.7583  0.9736
 1417TIP3   OH220822   5.586   4.551   6.418 -0.3125 -0.8367 -0.1918
 1417TIP3    H120823   5.571   4.496   6.495 -0.0143  0.7531  1.0567
 1417TIP3    H220824   5.566   4.494   6.343  0.8071 -2.8761  0.9881
 1418TIP3   OH220825   2.351   1.697   8.202 -0.4354  0.5117  0.2793
 1418TIP3    H120826   2.433   1.706   8.249  0.0170  0.9358 -0.5734
 1418TIP3    H220827   2.357   1.759   8.129 -1.5254  0.5832  0.2303
 1419TIP3   OH220828   2.715   0.847   7.302  0.2193  0.0580 -0.3727
 1419TIP3    H120829   2.780   0.866   7.371  1.2203 -0.6008 -1.0978
 1419TIP3    H220830   2.707   0.928   7.253 -0.1875  0.4103  0.2733
 1420TIP3   OH220831   5.107   2.116   2.043  0.2760 -0.0141 -0.4423
 1420TIP3    H120832   5.201   2.113   2.061  0.5163  1.6020 -1.3283
 1420TIP3    H220833   5.097   2.065   1.962  0.2413 -0.9791  0.1579
 1421TIP3   OH220834   1.942   5.185   1.728  0.0066  0.1831  0.2228
 1421TIP3    H120835   2.018   5.212   1.779  0.8251  0.2166 -0.9643
 1421TIP3    H220836   1.970   5.103   1.686 -0.6023  0.2188 -0.2541
 1422TIP3   OH220837   4.505   5.123   0.888  0.1804  0.3279  0.6846
 1422TIP3    H120838   4.577   5.157   0.835  0.2208  0.2943  0.7190
 1422TIP3    H220839   4.541   5.048   0.934  0.4153  0.9125  1.4819
 1423TIP3   OH220840   4.586   3.265   8.469 -0.1932  0.2170 -0.1696
 1423TIP3    H120841   4.590   3.219   8.385  1.8346 -1.6427  0.8434
 1423TIP3    H220842   4.678   3.276   8.495 -0.6128  3.8228  0.2911
 1424TIP3   OH220843   2.073   4.384   0.520  0.1333 -0.2060 -0.3269
 1424TIP3    H120844   2.119   4.300   0.519 -0.8035 -0.7622  0.7425
 1424TIP3    H220845   2.011   4.378   0.447  0.3201 -0.2945 -0.4794
 1425TIP3   OH220846   3.664   3.913   0.675 -0.0978 -0.1847  0.2910
 1425TIP3    H120847   3.592   3.915   0.737  2.4474  0.3592  3.4984
 1425TIP3    H220848   3.656   3.995   0.626 -0.4885  0.8945  2.0848
 1426TIP3   OH220849   5.826   1.158   0.647 -0.3248 -0.3457  0.1347
 1426TIP3    H120850   5.874   1.076   0.641 -1.1421 -0.7418 -1.6687
 1426TIP3    H220851   5.777   1.164   0.565  0.2301  2.2793 -0.1103
 1427TIP3   OH220852   2.729   6.143   1.398 -0.5147 -0.4970  0.0090
 1427TIP3    H120853   2.749   6.195   1.320  0.8764 -1.2376 -0.1602
 1427TIP3    H220854   2.773   6.189   1.469  0.7549 -1.4089 -0.1472
 1428TIP3   OH220855   3.456   0.991   2.291 -0.3236  0.3355 -0.0458
 1428TIP3    H120856   3.446   0.912   2.344  0.0795 -0.2408 -0.7963
 1428TIP3    H220857   3.537   0.976   2.242 -0.6937  0.8345 -0.8310
 1429TIP3   OH220858   4.664   3.639   7.722 -0.0814  0.6620 -0.0580
 1429TIP3    H120859   4.726   3.583   7.675  0.0999  1.0806 -0.3264
 1429TIP3    H220860   4.634   3.701   7.655 -0.4423  0.7472  0.1845
 1430TIP3   OH220861   1.305   3.750   0.486  0.1952 -0.4931  0.2763
 1430TIP3    H120862   1.295   3.844   0.496 -2.3935 -0.3502 -2.3761
 1430TIP3    H220863   1.380   3.740   0.428 -0.1120 -0.0054 -0.2096
 1431TIP3   OH220864   2.450   5.999   1.072 -0.2521 -1.3024 -0.7109
 1431TIP3    H120865   2.375   5.940   1.080 -1.1844 -0.1640 -0.8312
 1431TIP3    H220866   2.416   6.085   1.097  1.2839 -0.9450  0.2883
 1432TIP3   OH220867   3.160   6.245   9.060  0.4822  0.1596  0.3678
 1432TIP3    H120868   3.103   6.247   9.138 -1.3590 -0.2222 -0.9002
 1432TIP3    H220869   3.141   6.327   9.015 -2.7619 -1.8496 -2.4656
 1433TIP3   OH220870   3.569   2.984   2.414 -0.1362  0.1335 -0.5701
 1433TIP3    H120871   3.601   2.944   2.333 -1.1101 -2.2701  0.1364
 1433TIP3    H220872   3.643   2.979   2.474  0.1422  0.6250 -0.8607
 1434TIP3   OH220873   5.496   2.747   7.304 -0.0723 -0.0835 -0.1489
 1434TIP3    H120874   5.413   2.786   7.331 -1.4408 -2.7599 -0.1485
 1434TIP3    H220875   5.498   2.758   7.209 -0.3828  0.1026 -0.1339
 1435TIP3   OH220876   0.830   1.787   2.739 -0.3848  0.3708 -0.2045
 1435TIP3    H120877   0.902   1.734   2.703 -0.7105 -0.1224 -0.1420
 1435TIP3    H220878   0.757   1.726   2.746 -0.3498  0.4458  1.2588
 1436TIP3   OH220879   1.291   5.579   6.696 -0.0389  0.1608 -0.3568
 1436TIP3    H120880   1.263   5.664   6.730  1.1173  0.2182  0.5025
 1436TIP3    H220881   1.345   5.600   6.620 -0.9612  0.1168 -1.0395
 1437TIP3   OH220882   3.069   6.101   8.013 -0.2886 -0.4428  0.5089
 1437TIP3    H120883   3.001   6.136   7.956 -1.5651 -1.6081  1.2407
 1437TIP3    H220884   3.136   6.169   8.015 -2.1093  1.4383  0.9639
 1438TIP3   OH220885   2.877   4.024   0.582 -0.1507 -0.1972  0.0668
 1438TIP3    H120886   2.919   4.016   0.497  0.3621 -1.1108  0.3949
 1438TIP3    H220887   2.941   4.071   0.636 -0.4341  0.2934 -0.0208
 1439TIP3   OH220888   2.920   5.890   1.371 -0.6300 -0.2882 -0.0773
 1439TIP3    H120889   2.859   5.817   1.379 -1.0041  0.2019  2.4149
 1439TIP3    H220890   2.868   5.967   1.394  0.9267  0.0903  2.7228
 1440TIP3   OH220891   6.369   4.725   7.392  0.1497  0.3766  0.4504
 1440TIP3    H120892   6.402   4.809   7.425  1.3936 -0.5429  1.6705
 1440TIP3    H220893   6.275   4.729   7.407 -0.0247  2.0602 -0.7463
 1441TIP3   OH220894   1.135   1.001   1.158 -0.6585  0.1810  0.2815
 1441TIP3    H120895   1.196   1.075   1.155  1.5662 -1.5307 -2.9463
 1441TIP3    H220896   1.182   0.934   1.207 -0.7335 -0.5178 -0.5804
 1442TIP3   OH220897   3.627   2.055   0.246  0.3296  0.2942 -0.2453
 1442TIP3    H120898   3.551   1.998   0.230 -0.7694  0.5565  3.2909
 1442TIP3    H220899   3.608   2.134   0.196 -1.4897  0.1549  0.1512
 1443TIP3   OH220900   4.449   4.160   0.303 -0.3036 -0.1245  0.3423
 1443TIP3    H120901   4.503   4.211   0.242  0.5780 -3.3455 -1.8510
 1443TIP3    H220902   4.513   4.115   0.358 -1.0326  0.4373  1.6877
 1444TIP3   OH220903   1.618   5.342   8.843  0.6448 -0.1916  0.3991
 1444TIP3    H120904   1.621   5.380   8.930  3.8182 -0.9516  0.7458
 1444TIP3    H220905   1.667   5.403   8.788  0.7720 -0.8900 -0.2834
 1445TIP3   OH220906   4.257   2.611   9.275  0.0283  0.2091 -0.2628
 1445TIP3    H120907   4.170   2.651   9.284 -1.0104 -1.6712 -1.3612
 1445TIP3    H220908   4.258   2.542   9.341  2.3068  2.6426  2.5214
 1446TIP3   OH220909   4.495   0.474   6.340 -0.2235  0.4117  0.3572
 1446TIP3    H120910   4.507   0.458   6.246  0.0554 -0.5623  0.5408
 1446TIP3    H220911   4.403   0.452   6.356  0.2603 -1.5793  0.6836
 1447TIP3   OH220912   5.494   4.933   8.395 -0.3485  0.1207  0.1167
 1447TIP3    H120913   5.588   4.942   8.409  0.0722 -1.4959 -1.3783
 1447TIP3    H220914   5.455   4.987   8.464  1.6516  1.0657  0.5903
 1448TIP3   OH220915   3.657   4.304   9.412  0.6698  0.0297 -0.5307
 1448TIP3    H120916   3.628   4.298   9.321 -1.0021  1.1543 -0.1252
 1448TIP3    H220917   3.724   4.236   9.421  1.9503  0.8337 -2.9691
 1449TIP3   OH220918   6.265   0.517   7.985 -0.1498 -0.0254 -0.7484
 1449TIP3    H120919   6.239   0.609   7.992  2.9216  1.0414 -1.8770
 1449TIP3    H220920   6.279   0.490   8.075  0.3435  1.0877 -0.4685
 1450TIP3   OH220921   3.325   2.755   1.166 -0.6664  0.4504 -0.2245
 1450TIP3    H120922   3.286   2.689   1.110 -0.1358  0.5642 -0.7309
 1450TIP3    H220923   3.288   2.738   1.253 -0.2977 -0.7091 -0.2791
 1451TIP3   OH220924   0.716   2.032   2.436  0.0653  0.0309  0.9189
 1451TIP3    H120925   0.780   2.049   2.504 -0.5437  2.3641  0.9910
 1451TIP3    H220926   0.633   2.061   2.473 -0.0941  2.6862 -1.1781
 1452TIP3   OH220927   0.535   1.328   8.504  0.3781  0.1813 -0.3798
 1452TIP3    H120928   0.556   1.361   8.416 -0.9616 -2.2319 -1.7207
 1452TIP3    H220929   0.599   1.258   8.519  0.5873  0.5659  0.6037
 1453TIP3   OH220930   2.277   0.274   9.122  0.3845 -0.1256 -0.6760
 1453TIP3    H120931   2.214   0.214   9.083  2.1094 -1.7227 -1.1264
 1453TIP3    H220932   2.302   0.233   9.204  0.7411  0.5825 -0.4194
 1454TIP3   OH220933   2.126   3.158   8.863 -0.2187 -0.0823  0.3300
 1454TIP3    H120934   2.064   3.166   8.791 -0.4008  1.2617  0.6017
 1454TIP3    H220935   2.091   3.087   8.917 -2.2055  1.3699  1.0856
 1455TIP3   OH220936   3.871   2.021   0.706 -0.9775  0.3368 -0.3547
 1455TIP3    H120937   3.923   1.941   0.702 -0.5883  0.4720  1.2794
 1455TIP3    H220938   3.801   2.007   0.642 -0.1803 -0.7535 -1.0224
 1456TIP3   OH220939   2.027   1.081   0.140 -0.3526 -0.3796  0.0726
 1456TIP3    H120940   1.936   1.055   0.146  0.1934 -2.0746  2.6961
 1456TIP3    H220941   2.073   1.004   0.106 -0.1208  1.4826 -4.6768
 1457TIP3   OH220942   5.673   4.944  -0.019  0.2560  0.6043 -0.0254
 1457TIP3    H120943   5.701   4.998   0.054  1.9361 -1.2777  0.7933
 1457TIP3    H220944   5.582   4.922   0.001  1.0462 -0.8847  2.1662
 1458TIP3   OH220945   5.755   2.999   1.389 -0.1269  0.8580  0.1255
 1458TIP3    H120946   5.826   3.062   1.403  0.1365  0.7838 -0.8012
 1458TIP3    H220947   5.779   2.954   1.307 -1.1863  0.7630 -0.1424
 1459TIP3   OH220948   4.300   0.972   8.893 -1.1740  0.1068  0.0872
 1459TIP3    H120949   4.261   0.902   8.840  1.1917 -0.9679 -0.3650
 1459TIP3    H220950   4.232   0.995   8.956 -2.1510 -2.3904  0.0438
 1460TIP3   OH220951   0.530   1.565   0.095  0.5245  0.3678  0.3159
 1460TIP3    H120952   0.553   1.478   0.126  0.4823  0.3924  0.4189
 1460TIP3    H220953   0.584   1.625   0.146 -1.1809  0.5541  2.0308
 1461TIP3   OH220954   2.074   5.885   0.008 -0.1542  0.2973  0.4861
 1461TIP3    H120955   2.112   5.966  -0.025 -0.4438  0.3014  0.1584
 1461TIP3    H220956   2.122   5.867   0.089  1.2895 -0.2804 -0.4736
 1462TIP3   OH220957   6.301   3.311   7.535  0.3395 -0.5173 -0.3607
 1462TIP3    H120958   6.351   3.316   7.617 -1.3612  0.7477  0.6678
 1462TIP3    H220959   6.330   3.388   7.485  0.9709 -0.9877 -0.7454
 1463TIP3   OH220960   6.249   5.440   7.647 -0.1478 -0.3623  0.0100
 1463TIP3    H120961   6.291   5.507   7.701 -1.6322  0.8451 -0.2361
 1463TIP3    H220962   6.201   5.490   7.580  0.8000 -1.7794 -1.8145
 1464TIP3   OH220963   3.363   1.982   0.199 -0.4409  0.1685 -0.3847
 1464TIP3    H120964   3.338   1.900   0.157 -1.7156  0.6254 -0.5568
 1464TIP3    H220965   3.286   2.039   0.189  0.3054  1.2775  0.0011
 1465TIP3   OH220966   5.426   0.070   1.825 -0.7333  0.0987  0.2016
 1465TIP3    H120967   5.502   0.129   1.827 -0.3241 -0.3911  2.2719
 1465TIP3    H220968   5.353   0.124   1.853 -0.7127  0.0601  0.3316
 1466TIP3   OH220969   4.922   4.894   8.040  0.2141  0.1005  0.3327
 1466TIP3    H120970   4.945   4.845   8.118  0.6537  0.5343  0.4802
 1466TIP3    H220971   4.850   4.952   8.068  0.7425  0.6551  0.5676
 1467TIP3   OH220972   2.819   0.251   8.448  0.1419  0.1991  0.3875
 1467TIP3    H120973   2.835   0.234   8.355 -2.6398  0.6291 -0.2454
 1467TIP3    H220974   2.866   0.332   8.467  0.1669  0.4819 -0.8448
 1468TIP3   OH220975   4.457   3.335   1.305 -0.0566  0.4419 -0.5568
 1468TIP3    H120976   4.392   3.265   1.308 -1.6578  1.7683 -1.8028
 1468TIP3    H220977   4.428   3.398   1.372  1.0614  0.1903  0.1939
 1469TIP3   OH220978   6.066   1.621   8.115  0.2489 -0.5643  0.0649
 1469TIP3    H120979   6.110   1.706   8.111 -0.8924  0.0336 -0.2511
 1469TIP3    H220980   6.137   1.558   8.130  0.8533  0.7221  3.5263
 1470TIP3   OH220981   3.186   2.850   6.754  0.3894  0.0310 -0.4576
 1470TIP3    H120982   3.215   2.923   6.699  0.9303 -0.2681 -0.5735
 1470TIP3    H220983   3.265   2.798   6.769  0.4617  0.6310  1.4352
 1471TIP3   OH220984   0.489   3.561   1.840  0.5121 -0.2824 -0.0900
 1471TIP3    H120985   0.455   3.475   1.864 -2.0867 -0.3210 -3.2322
 1471TIP3    H220986   0.557   3.543   1.775 -1.2390 -0.0921 -2.0997
 1472TIP3   OH220987   0.870   1.963   6.944 -0.4539  0.3313  0.2058
 1472TIP3    H120988   0.886   1.892   7.006 -2.2731 -1.1419 -0.9379
 1472TIP3    H220989   0.939   1.953   6.878 -0.9044 -0.6358 -0.1400
 1473TIP3   OH220990   0.624   3.978   7.188 -0.5697  0.5001 -0.3744
 1473TIP3    H120991   0.625   4.067   7.152 -2.4718  0.2709 -1.0912
 1473TIP3    H220992   0.619   3.991   7.282 -2.4397  1.2168 -0.5334
 1474TIP3   OH220993   0.418   0.915   2.011 -0.1733 -0.0334  0.1663
 1474TIP3    H120994   0.368   0.985   1.969 -1.2452 -1.0275 -0.2602
 1474TIP3    H220995   0.352   0.856   2.047  0.5498 -2.4892 -2.2086
 1475TIP3   OH220996   6.130   1.970   2.177  0.1212  0.9753 -0.3391
 1475TIP3    H120997   6.052   1.987   2.124  0.2197  0.2238 -0.7352
 1475TIP3    H220998   6.105   1.994   2.266 -1.3856 -1.5499  0.0000
 1476TIP3   OH220999   2.896   0.944   0.601 -0.5147 -0.5353 -0.0426
 1476TIP3    H121000   2.913   1.021   0.655 -0.5227 -0.0101 -0.7799
 1476TIP3    H221001   2.979   0.895   0.602 -0.1325  0.1008 -0.5636
 1477TIP3   OH221002   4.840   6.021   2.996  0.0443 -0.5028  0.5456
 1477TIP3    H121003   4.762   6.073   3.015  0.1627  0.7527 -1.9835
 1477TIP3    H221004   4.835   5.946   3.055 -4.0196 -1.4469 -0.7154
 1478TIP3   OH221005   1.911   0.482   8.319 -0.0382  0.1528 -0.2198
 1478TIP3    H121006   1.900   0.574   8.297  2.9016  0.5012 -0.6636
 1478TIP3    H221007   1.942   0.441   8.237  0.3257 -0.8506  0.3964
 1479TIP3   OH221008   4.468   0.184   9.317  0.2195 -0.0335  0.2102
 1479TIP3    H121009   4.432   0.191   9.229  0.3342  0.9699  0.2214
 1479TIP3    H221010   4.438   0.264   9.361  2.0540  0.6252  0.3569
 1480TIP3   OH221011   3.906   4.189   0.111  0.6727 -0.6779 -0.3641
 1480TIP3    H121012   3.931   4.272   0.150  1.9233 -2.0427  2.0007
 1480TIP3    H221013   3.974   4.171   0.046  0.2973  0.1972 -1.0078
 1481TIP3   OH221014   0.420   2.909   0.298  0.1706  0.0979 -0.1372
 1481TIP3    H121015   0.475   2.843   0.255 -0.6658 -0.9094  0.2905
 1481TIP3    H221016   0.466   2.927   0.380  0.8718  0.7355 -0.6588
 1482TIP3   OH221017   0.523   5.078   1.476  0.0316 -0.5974 -0.1055
 1482TIP3    H121018   0.429   5.095   1.470 -0.0315 -1.0515 -0.5035
 1482TIP3    H221019   0.543   5.089   1.569 -0.2477  0.3131 -0.1416
 1483TIP3   OH221020   0.875   3.879   1.248 -0.0572  0.3052  0.0154
 1483TIP3    H121021   0.889   3.880   1.154  0.0935 -1.3176 -0.0133
 1483TIP3    H221022   0.882   3.787   1.272 -1.1636  0.5528  1.4538
 1484TIP3   OH221023   3.839   5.487   0.757  0.2196  0.2499  0.2210
 1484TIP3    H121024   3.871   5.495   0.846 -0.5621  1.7987  0.4006
 1484TIP3    H221025   3.838   5.577   0.724  1.9673 -0.4169 -1.9083
 1485TIP3   OH221026   5.425   1.189   7.722 -0.0502 -0.1867  0.6734
 1485TIP3    H121027   5.400   1.242   7.798 -1.4160 -2.8673  2.2877
 1485TIP3    H221028   5.347   1.187   7.667  0.1185 -0.1944  0.4329
 1486TIP3   OH221029   0.187   0.073   7.366 -0.6413  0.0320 -0.2986
 1486TIP3    H121030   0.108   0.096   7.317  0.5418  0.0735 -2.3306
 1486TIP3    H221031   0.219  -0.007   7.323  1.3663  1.0212 -0.7930
 1487TIP3   OH221032   5.530   3.372   8.905  0.1316  0.1152  0.3419
 1487TIP3    H121033   5.555   3.316   8.831  0.3193 -0.1969  0.6422
 1487TIP3    H221034   5.436   3.386   8.893  0.2307  0.3796 -0.1673
 1488TIP3   OH221035   4.025   3.110   0.561 -0.1376  1.0303 -0.5808
 1488TIP3    H121036   4.026   3.196   0.519 -0.1504  0.0451 -2.7947
 1488TIP3    H221037   4.018   3.128   0.654  2.5759  3.4779 -0.7265
 1489TIP3   OH221038   0.964   0.445   1.905  0.3534 -0.4556  0.3986
 1489TIP3    H121039   1.005   0.461   1.990 -0.4354 -3.0974  1.3912
 1489TIP3    H221040   1.030   0.400   1.854 -0.0168 -1.2422  0.5980
 1490TIP3   OH221041   4.668   4.230   7.647  0.2814  0.3976  0.7642
 1490TIP3    H121042   4.693   4.200   7.560  0.8563  0.3051  0.9594
 1490TIP3    H221043   4.736   4.293   7.672 -0.6851  1.5922  0.5194
 1491TIP3   OH221044   1.154   5.784   8.435  0.0100 -0.4690 -0.7159
 1491TIP3    H121045   1.094   5.807   8.364  0.1808 -0.1544 -0.7628
 1491TIP3    H221046   1.111   5.814   8.515 -0.5928 -1.6347 -0.5896
 1492TIP3   OH221047   3.283   5.099   2.090 -0.0104 -0.3080  0.1800
 1492TIP3    H121048   3.267   5.057   2.006  1.1837 -0.4416 -0.0001
 1492TIP3    H221049   3.196   5.108   2.130 -0.6498  0.2120 -1.2627
 1493TIP3   OH221050   3.216   2.750   8.926  0.7414  0.1569 -0.3490
 1493TIP3    H121051   3.229   2.655   8.935  2.1657  0.4952  2.2791
 1493TIP3    H221052   3.122   2.762   8.934  0.6180 -0.9912  0.1599
 1494TIP3   OH221053   2.280   4.643   1.451  0.0002 -0.2919  0.2221
 1494TIP3    H121054   2.283   4.559   1.406 -0.7878 -0.4358  0.4339
 1494TIP3    H221055   2.199   4.641   1.502  1.3986 -0.6140  2.5952
 1495TIP3   OH221056   4.339   4.914   1.438 -0.6354  0.8583  0.7416
 1495TIP3    H121057   4.369   4.850   1.372  0.1534 -0.2719  2.1314
 1495TIP3    H221058   4.294   4.981   1.387 -0.2915 -0.1048 -0.9274
 1496TIP3   OH221059   5.467   1.624   9.335 -0.1586 -0.3406  0.0887
 1496TIP3    H121060   5.418   1.568   9.395 -1.0955  0.4643  0.0962
 1496TIP3    H221061   5.559   1.609   9.359 -0.5086  0.3140  2.0763
 1497TIP3   OH221062   2.665   1.635   2.262  0.3864  0.2840  0.1754
 1497TIP3    H121063   2.588   1.630   2.319 -0.3468 -1.4984 -0.8863
 1497TIP3    H221064   2.666   1.725   2.229 -1.5051  0.2229 -0.1152
 1498TIP3   OH221065   0.334   5.457   7.920  0.2411 -0.0724 -0.2544
 1498TIP3    H121066   0.429   5.453   7.911  0.5971 -0.9560  2.6497
 1498TIP3    H221067   0.308   5.534   7.869  2.7264  1.2159  0.2355
 1499TIP3   OH221068   4.980   0.167   1.785 -0.3058  0.1390 -0.0084
 1499TIP3    H121069   4.916   0.207   1.726 -0.2450  0.1475 -0.0701
 1499TIP3    H221070   4.963   0.073   1.779 -1.3709  0.2279  1.2095
 1500TIP3   OH221071   0.892   3.742   0.731  0.2926  0.2629 -0.5146
 1500TIP3    H121072   0.954   3.671   0.722  0.2998 -0.0985  1.7658
 1500TIP3    H221073   0.809   3.699   0.754  0.1154  0.9380  0.1389
 1501TIP3   OH221074   3.573   4.512   8.141  0.1754 -0.6072  0.2809
 1501TIP3    H121075   3.598   4.510   8.233 -0.3208  1.2448  0.4949
 1501TIP3    H221076   3.480   4.489   8.142 -0.7755  2.7035  0.7171
 1502TIP3   OH221077   1.154   1.941   3.082  0.4520  0.6529  0.2419
 1502TIP3    H121078   1.114   1.859   3.108 -0.0053  1.1704  1.2140
 1502TIP3    H221079   1.248   1.927   3.090  0.3664  0.2789  0.5548
 1503TIP3   OH221080   1.457   4.554   8.951  0.4185 -0.1111 -0.4871
 1503TIP3    H121081   1.512   4.572   9.027  2.0087 -1.9022 -1.1318
 1503TIP3    H221082   1.494   4.608   8.881 -0.1216  0.4231 -0.3695
 1504TIP3   OH221083   4.399   1.718   0.044  0.1255 -0.5777  0.4245
 1504TIP3    H121084   4.467   1.739  -0.021  0.0318 -0.2008  0.4457
 1504TIP3    H221085   4.386   1.799   0.093  0.6266 -1.0272  1.3264
 1505TIP3   OH221086   1.989   1.313   8.583 -0.4097  0.5680 -0.3156
 1505TIP3    H121087   2.017   1.356   8.664 -2.1718  3.8853 -1.2631
 1505TIP3    H221088   2.059   1.333   8.521  0.4434 -1.0886  0.0544
 1506TIP3   OH221089   2.089   0.696   8.456 -0.0824  1.0139  0.5427
 1506TIP3    H121090   2.184   0.701   8.465  0.1204  0.4223 -0.8815
 1506TIP3    H221091   2.055   0.769   8.508  1.1896  1.6312  0.5311
 1507TIP3   OH221092   6.247   0.307   7.693  0.0224 -0.1743  0.1899
 1507TIP3    H121093   6.294   0.318   7.610  0.7405 -2.0012  0.3006
 1507TIP3    H221094   6.191   0.385   7.700  0.2379  0.2108 -1.8064
 1508TIP3   OH221095   2.415   2.881   1.169 -0.1916  0.1136  0.6491
 1508TIP3    H121096   2.446   2.930   1.093  0.9458  0.5069  1.3401
 1508TIP3    H221097   2.320   2.895   1.169 -0.3006 -0.4321 -1.0435
 1509TIP3   OH221098   3.391   2.416   9.395  0.8400  0.2371  0.2909
 1509TIP3    H121099   3.326   2.476   9.358  0.9871  0.8452  0.9908
 1509TIP3    H221100   3.409   2.354   9.324 -3.0890 -2.1657  1.1088
 1510TIP3   OH221101   3.381   4.801   1.559  0.4792  0.4213 -0.7416
 1510TIP3    H121102   3.406   4.886   1.594 -0.3375  1.3047 -2.2010
 1510TIP3    H221103   3.324   4.821   1.485 -0.1582 -1.4138 -0.8029
 1511TIP3   OH221104   3.397   3.766   8.738  0.5578 -0.0075  0.3509
 1511TIP3    H121105   3.463   3.729   8.797  0.3557 -0.7521  0.1189
 1511TIP3    H221106   3.442   3.839   8.695  0.8580  0.2339  1.0622
 1512TIP3   OH221107   5.947   0.776   8.711 -0.0941  0.3165 -0.6101
 1512TIP3    H121108   6.030   0.738   8.739 -0.6439 -0.6170 -0.2158
 1512TIP3    H221109   5.960   0.871   8.719  0.6094  0.1461  0.3634
 1513TIP3   OH221110   6.195   5.591   8.287 -0.9977  0.3719 -0.5124
 1513TIP3    H121111   6.283   5.553   8.289 -1.7308 -1.4763 -1.2557
 1513TIP3    H221112   6.205   5.669   8.232  0.2680  0.4600 -0.1941
 1514TIP3   OH221113   3.923   1.997   7.733 -0.5087 -0.1742  0.0456
 1514TIP3    H121114   3.975   2.070   7.766 -2.8554  1.5336  0.3076
 1514TIP3    H221115   3.882   2.031   7.653 -1.2578 -1.3703 -0.1110
 1515TIP3   OH221116   6.109   4.475   7.956  0.0841  0.7917  0.4856
 1515TIP3    H121117   6.033   4.491   7.901  0.3355  0.8851  0.1661
 1515TIP3    H221118   6.178   4.531   7.920 -0.1897  2.0780  1.8499
 1516TIP3   OH221119   3.381   0.844   2.700  0.1756 -0.5538  0.8730
 1516TIP3    H121120   3.426   0.914   2.747 -2.5760  0.8973  1.5471
 1516TIP3    H221121   3.382   0.770   2.761 -1.0086  0.4662  2.1918
 1517TIP3   OH221122   2.905   1.200   1.259 -0.3892 -0.1252 -0.0727
 1517TIP3    H121123   2.985   1.178   1.307 -1.1596 -1.2010  0.7729
 1517TIP3    H221124   2.836   1.200   1.325 -1.4910 -1.6443 -1.1528
 1518TIP3   OH221125   2.039   5.836   6.986 -0.2012  0.6709  0.0059
 1518TIP3    H121126   2.131   5.829   6.961  0.4731  0.4886  2.3847
 1518TIP3    H221127   2.022   5.931   6.987  0.4347  0.7801  1.1357
 1519TIP3   OH221128   0.432   4.470   1.356 -0.0030 -0.6256 -0.1526
 1519TIP3    H121129   0.349   4.480   1.311  0.4266 -1.1338 -1.0755
 1519TIP3    H221130   0.488   4.538   1.318 -0.5912  1.1746  1.9825
 1520TIP3   OH221131   0.144   4.526   7.853  0.2149 -0.2282 -0.3085
 1520TIP3    H121132   0.198   4.551   7.928 -0.9270 -0.3760  0.5830
 1520TIP3    H221133   0.178   4.441   7.826  2.5161  1.0324 -1.8172
 1521TIP3   OH221134   4.774   0.861   2.370 -0.1225  0.2098  0.4857
 1521TIP3    H121135   4.756   0.789   2.430 -0.3319  0.9886  1.3750
 1521TIP3    H221136   4.692   0.910   2.365  0.4267  1.2194  1.0454
 1522TIP3   OH221137   3.781   1.114   7.767  0.2794  0.7690 -0.2525
 1522TIP3    H121138   3.717   1.178   7.735 -0.9142 -0.3525 -0.1763
 1522TIP3    H221139   3.857   1.127   7.710 -0.7182  0.8275 -1.6124
 1523TIP3   OH221140   1.644   6.238   7.390  0.0705  0.2690  0.0739
 1523TIP3    H121141   1.633   6.229   7.296 -0.3715 -0.5996  0.1936
 1523TIP3    H221142   1.555   6.245   7.424  0.1988  0.0370  0.4673
 1524TIP3   OH221143   0.493   3.228   1.530 -0.4216  0.0735 -0.0759
 1524TIP3    H121144   0.501   3.136   1.505 -0.9741 -0.0220  0.0859
 1524TIP3    H221145   0.421   3.262   1.476 -0.3397  0.3655 -0.0070
 1525TIP3   OH221146   2.265   1.019   2.595  0.0074  0.7713 -0.8514
 1525TIP3    H121147   2.357   1.010   2.622 -0.0503 -1.2045 -1.1522
 1525TIP3    H221148   2.215   0.988   2.670 -0.2480 -1.7638 -1.9770
 1526TIP3   OH221149   6.363   1.066   8.816 -0.1833 -0.7684  0.3078
 1526TIP3    H121150   6.341   0.977   8.846 -1.6225 -0.7659 -0.6467
 1526TIP3    H221151   6.440   1.054   8.761 -0.4482 -1.4476  0.0721
 1527TIP3   OH221152   0.749   4.077   0.256 -0.2747 -0.6038 -0.1941
 1527TIP3    H121153   0.758   4.059   0.163  0.2153 -0.1982 -0.2314
 1527TIP3    H221154   0.820   4.028   0.298  0.4665  0.4247 -0.2021
 1528TIP3   OH221155   3.792   2.194   9.149  0.2412 -0.0397 -0.0688
 1528TIP3    H121156   3.885   2.213   9.136 -0.3215  2.2972 -1.1268
 1528TIP3    H221157   3.753   2.205   9.063 -1.1478 -0.2503  0.5044
 1529TIP3   OH221158   6.025   5.262   6.445 -0.0316 -0.2299 -0.0989
 1529TIP3    H121159   5.958   5.195   6.458 -0.7028  0.7487  1.8030
 1529TIP3    H221160   5.990   5.340   6.488  1.5327  0.8343 -0.6695
 1530TIP3   OH221161   1.371   6.360   0.649 -0.4197 -0.0484 -0.3419
 1530TIP3    H121162   1.430   6.430   0.678  0.5380 -1.7999  2.2230
 1530TIP3    H221163   1.417   6.319   0.576 -1.1295  2.0504 -2.1074
 1531TIP3   OH221164   3.601   0.425   7.038  0.2105 -0.1931 -0.2737
 1531TIP3    H121165   3.609   0.330   7.031  1.0172 -0.0071 -2.6066
 1531TIP3    H221166   3.524   0.447   6.985 -1.3762  0.3207  2.0760
 1532TIP3   OH221167   1.673   4.040   7.671 -0.2405  0.4847 -0.4991
 1532TIP3    H121168   1.634   4.025   7.757  1.5547 -0.2482  0.2505
 1532TIP3    H221169   1.599   4.058   7.614 -1.5175  0.6339  1.1176
 1533TIP3   OH221170   0.610   6.039   1.307  0.0271 -0.0918 -0.2250
 1533TIP3    H121171   0.634   5.958   1.261  1.3035 -1.1462  2.0954
 1533TIP3    H221172   0.692   6.090   1.309 -0.1122  0.1162  0.4711
 1534TIP3   OH221173   4.900   2.196   1.384  0.0926 -0.4167 -0.5362
 1534TIP3    H121174   4.930   2.237   1.303  0.3480  0.5887  0.0358
 1534TIP3    H221175   4.814   2.162   1.363 -0.1151  0.3967 -1.0706
 1535TIP3   OH221176   4.345   4.109   7.581 -0.5780 -0.1785 -0.1323
 1535TIP3    H121177   4.414   4.053   7.545 -1.2647 -1.3839  0.3631
 1535TIP3    H221178   4.287   4.126   7.507  1.3201  2.6757 -1.1261
 1536TIP3   OH221179   2.644   4.623   8.815  0.0190 -0.2621 -0.2613
 1536TIP3    H121180   2.573   4.619   8.752 -1.9528 -0.1005  1.8154
 1536TIP3    H221181   2.697   4.545   8.797 -0.2968 -0.0604 -2.2363
 1537TIP3   OH221182   5.000   0.394   0.582  0.4265  0.0655  0.3926
 1537TIP3    H121183   4.914   0.407   0.624  1.0546  0.1934  1.7026
 1537TIP3    H221184   5.049   0.473   0.605  1.6347 -0.9874  1.5829
 1538TIP3   OH221185   3.254   0.050   1.197  0.0959 -0.1257 -0.3961
 1538TIP3    H121186   3.241  -0.044   1.187  3.4718 -0.7858  0.1589
 1538TIP3    H221187   3.258   0.084   1.107  1.1456 -0.9568 -0.6808
 1539TIP3   OH221188   5.446   2.230   2.211  0.2897  0.2336 -0.2617
 1539TIP3    H121189   5.407   2.211   2.297  0.7162  0.8401  0.0765
 1539TIP3    H221190   5.531   2.269   2.232  1.1116 -1.0956 -0.9810
 1540TIP3   OH221191   2.360   5.053   8.779 -0.1443  0.3403 -0.0642
 1540TIP3    H121192   2.382   4.961   8.795  1.1976  0.5394 -0.6108
 1540TIP3    H221193   2.407   5.074   8.698 -0.7546  1.4020 -0.1518
 1541TIP3   OH221194   1.473   2.945   9.196  0.4522 -0.3505  0.8708
 1541TIP3    H121195   1.488   3.033   9.230  2.3776 -0.4089  0.2424
 1541TIP3    H221196   1.559   2.904   9.195 -0.2351 -1.8567  0.0580
 1542TIP3   OH221197   0.723   0.472   8.020  0.2822  0.4803  0.5033
 1542TIP3    H121198   0.795   0.527   7.989  1.3633 -1.2271 -0.1877
 1542TIP3    H221199   0.764   0.411   8.082 -0.7227  0.0094  0.7240
 1543TIP3   OH221200   6.327   6.369   2.547 -0.3042  0.0780  0.1541
 1543TIP3    H121201   6.317   6.418   2.628 -1.5004  0.0423  0.0457
 1543TIP3    H221202   6.377   6.291   2.572  0.3169  0.6173  0.6172
 1544TIP3   OH221203   0.327   0.713   0.477  0.1100  0.3196  0.1077
 1544TIP3    H121204   0.398   0.687   0.418  0.9081  0.9443  0.7718
 1544TIP3    H221205   0.248   0.698   0.426  0.7604  0.5191 -1.0040
 1545TIP3   OH221206   4.186   6.078   2.442 -0.5602 -0.0923  0.3731
 1545TIP3    H121207   4.097   6.053   2.417 -0.7206  0.8590 -0.0644
 1545TIP3    H221208   4.238   5.999   2.429 -1.3523 -0.6819  0.7137
 1546TIP3   OH221209   3.853   1.953   2.070 -0.5727  0.2403  0.2963
 1546TIP3    H121210   3.843   1.863   2.102  2.6359 -0.2180  0.2783
 1546TIP3    H221211   3.897   1.944   1.985 -0.9664  1.8134 -0.1112
 1547TIP3   OH221212   5.578   6.185   0.309  0.1412  0.2611  0.5973
 1547TIP3    H121213   5.667   6.153   0.298  0.1215 -0.0431  1.2959
 1547TIP3    H221214   5.586   6.259   0.369 -0.0067  0.6316  0.1731
 1548TIP3   OH221215   1.189   5.840   8.127 -0.2536 -0.4487 -0.5829
 1548TIP3    H121216   1.267   5.789   8.150  0.4528  1.6256  2.3133
 1548TIP3    H221217   1.119   5.803   8.181 -0.2019  0.3524  0.0542
 1549TIP3   OH221218   0.555   4.637   0.930  0.3861  0.2929  0.3687
 1549TIP3    H121219   0.513   4.678   0.855  0.5621  0.7726  0.5260
 1549TIP3    H221220   0.635   4.688   0.943  0.1093  0.5381  1.1857
 1550TIP3   OH221221   0.386   3.775   7.323  0.0679 -0.6649 -0.0656
 1550TIP3    H121222   0.423   3.789   7.236 -1.6731  1.3690 -0.5584
 1550TIP3    H221223   0.361   3.682   7.324 -0.6166 -0.5333 -2.0426
 1551TIP3   OH221224   1.792   1.930   9.307 -0.5674 -0.1372 -0.4951
 1551TIP3    H121225   1.800   2.012   9.356 -0.1360 -0.9415  0.8461
 1551TIP3    H221226   1.800   1.955   9.216  0.2218  1.2458 -0.0703
 1552TIP3   OH221227   6.247   6.084   0.351 -0.5558  0.5328 -0.4127
 1552TIP3    H121228   6.158   6.049   0.352 -0.4192  0.1121 -1.5966
 1552TIP3    H221229   6.243   6.163   0.404 -1.6165  0.4832 -0.4093
 1553TIP3   OH221230   6.223   2.680   1.886 -0.3649  0.0295  0.4879
 1553TIP3    H121231   6.291   2.700   1.951  0.8169  0.6255 -0.8739
 1553TIP3    H221232   6.191   2.765   1.857 -1.1829 -0.2385  0.5708
 1554TIP3   OH221233   5.590   4.230   8.665  0.8847 -0.1857 -0.5611
 1554TIP3    H121234   5.519   4.203   8.607  1.9447 -1.0011 -1.5177
 1554TIP3    H221235   5.570   4.321   8.687  0.9717  0.4966 -3.0499
 1555TIP3   OH221236   1.228   3.104   1.086 -0.5294 -0.8353 -0.5477
 1555TIP3    H121237   1.217   3.056   1.168  0.5036  1.0388  0.7738
 1555TIP3    H221238   1.301   3.060   1.041  0.0945 -0.8033  0.4124
 1556TIP3   OH221239   1.040   4.756   1.365 -0.2433  1.1579 -0.4270
 1556TIP3    H121240   1.031   4.807   1.445 -0.2188  1.7916 -0.8268
 1556TIP3    H221241   1.096   4.682   1.391 -0.3041  1.3102  0.1563
 1557TIP3   OH221242   1.599   6.281   7.778 -0.3345 -0.0809 -0.1758
 1557TIP3    H121243   1.649   6.356   7.811  0.3028 -1.0320  1.0997
 1557TIP3    H221244   1.584   6.301   7.686  1.1205  0.9107 -0.2276
 1558TIP3   OH221245   2.983   5.073   0.460  0.2280 -0.0399 -0.4557
 1558TIP3    H121246   2.921   5.000   0.454 -0.7617  0.2077  3.8372
 1558TIP3    H221247   2.934   5.147   0.424 -0.8356 -0.4478  0.0944
 1559TIP3   OH221248   3.149   0.603   3.298  0.1075 -0.0254  0.4932
 1559TIP3    H121249   3.053   0.598   3.296 -0.0303  1.6506  1.2180
 1559TIP3    H221250   3.175   0.543   3.368 -0.2935 -1.3589 -0.4508
 1560TIP3   OH221251   2.137   2.067   9.375 -0.1065 -1.2019 -0.1184
 1560TIP3    H121252   2.217   2.095   9.420  0.2056 -1.7715 -0.3062
 1560TIP3    H221253   2.083   2.146   9.371  0.9317 -0.4857 -1.0404
 1561TIP3   OH221254   4.328   2.531   9.023 -0.1185 -0.3443 -0.4320
 1561TIP3    H121255   4.305   2.558   9.112 -1.0798 -1.8968 -0.1561
 1561TIP3    H221256   4.330   2.435   9.028 -1.7631 -0.5342 -2.4494
 1562TIP3   OH221257   0.859   2.834   2.430  0.1349  0.0261  0.9441
 1562TIP3    H121258   0.883   2.759   2.375 -0.9034 -1.4274  2.3647
 1562TIP3    H221259   0.942   2.875   2.452  0.9480 -1.9332  1.7544
 1563TIP3   OH221260   4.623   2.539   9.388  1.0634  0.1342  0.4147
 1563TIP3    H121261   4.600   2.470   9.327  3.7971 -1.2684  0.7918
 1563TIP3    H221262   4.550   2.542   9.451  0.5873 -1.9825  0.0288
 1564TIP3   OH221263   0.162   6.274   9.171  0.4777 -0.4167 -0.0044
 1564TIP3    H121264   0.223   6.259   9.099 -0.2868 -0.1208 -0.7238
 1564TIP3    H221265   0.076   6.276   9.130 -0.0252 -0.8615  1.0059
 1565TIP3   OH221266   2.335   5.380   6.974 -0.3301 -0.2354 -0.0905
 1565TIP3    H121267   2.413   5.338   6.938 -0.1375  0.6682 -0.7589
 1565TIP3    H221268   2.330   5.465   6.930 -0.4331  0.6658  1.5397
 1566TIP3   OH221269   1.233   1.652   9.366 -0.0154 -0.2159  0.1354
 1566TIP3    H121270   1.200   1.571   9.329  0.8264  0.1479 -1.5051
 1566TIP3    H221271   1.159   1.687   9.416 -0.6128 -1.6172  0.2828
 1567TIP3   OH221272   2.453   5.998   0.794 -0.2258 -0.6421 -0.0480
 1567TIP3    H121273   2.439   6.012   0.888  1.1169  0.0543  0.0733
 1567TIP3    H221274   2.397   5.924   0.772 -3.8815  1.7293  0.3790
 1568TIP3   OH221275   5.190   4.365   3.022 -0.5981  0.5411  0.0588
 1568TIP3    H121276   5.229   4.279   3.006  0.7388  1.3780 -1.5963
 1568TIP3    H221277   5.179   4.370   3.117  1.9761 -0.3651  0.4795
 1569TIP3   OH221278   1.304   4.484   0.253  0.3081  0.1459  0.2873
 1569TIP3    H121279   1.264   4.568   0.230  1.7469  1.1405  1.2255
 1569TIP3    H221280   1.244   4.444   0.316 -0.9011 -0.0383 -0.9316
 1570TIP3   OH221281   3.691   5.846   7.804  0.6857  0.5888  0.2877
 1570TIP3    H121282   3.710   5.867   7.713 -0.4809  1.8352  0.3045
 1570TIP3    H221283   3.720   5.923   7.853 -0.2223  0.6317  0.7755
 1571TIP3   OH221284   0.820   3.096   7.018 -0.6697  0.1942 -0.1249
 1571TIP3    H121285   0.768   3.038   6.962  0.0049  0.5668 -1.1655
 1571TIP3    H221286   0.822   3.179   6.971 -0.1892  0.5591  0.5211
 1572TIP3   OH221287   2.047   0.839   7.414 -0.0909 -0.2679 -0.3027
 1572TIP3    H121288   1.983   0.893   7.368  1.1008  1.0032 -0.5433
 1572TIP3    H221289   2.011   0.828   7.502 -0.7126  0.3060 -0.4804
 1573TIP3   OH221290   0.866   4.994   0.580  0.2324 -1.0873 -0.6117
 1573TIP3    H121291   0.910   4.965   0.660  1.1859  2.1621  0.2023
 1573TIP3    H221292   0.929   4.976   0.510  1.2235 -0.1531  0.0013
 1574TIP3   OH221293   3.477   6.002   2.040 -0.2958 -0.6236  0.0068
 1574TIP3    H121294   3.425   6.049   2.105 -2.7497 -2.1969 -0.7020
 1574TIP3    H221295   3.455   6.043   1.957  1.3897  0.1543 -0.0956
 1575TIP3   OH221296   3.140   0.683   7.339  0.1290  0.1583 -0.3202
 1575TIP3    H121297   3.071   0.720   7.393 -0.7441  0.9731 -1.9294
 1575TIP3    H221298   3.202   0.754   7.325  0.1133  0.0970 -0.7422
 1576TIP3   OH221299   4.403   3.114   0.984 -0.0254  0.0005  0.1957
 1576TIP3    H121300   4.465   3.057   0.939 -1.4828 -1.5750  0.1157
 1576TIP3    H221301   4.398   3.080   1.073 -0.3526  0.4887  0.3714
 1577TIP3   OH221302   3.941   6.265   7.453 -0.3063 -0.4830 -0.2729
 1577TIP3    H121303   3.914   6.219   7.374 -1.2553  0.2821 -0.4192
 1577TIP3    H221304   3.908   6.354   7.440 -1.4050 -0.6053  1.4417
 1578TIP3   OH221305   2.783   2.862   2.213 -0.0705 -0.1583  0.5981
 1578TIP3    H121306   2.856   2.918   2.187 -0.9796 -0.1705 -2.3449
 1578TIP3    H221307   2.705   2.918   2.204 -0.7084 -1.0177  0.6135
 1579TIP3   OH221308   3.731   3.616   0.771  0.8377 -0.1770  0.3714
 1579TIP3    H121309   3.781   3.616   0.853  2.6434  1.6362 -0.6493
 1579TIP3    H221310   3.794   3.642   0.704 -1.7548  4.4391 -0.7363
 1580TIP3   OH221311   4.866   5.828   2.016  0.0447 -0.1163  0.4488
 1580TIP3    H121312   4.781   5.794   2.042 -0.6582  0.7983 -0.5813
 1580TIP3    H221313   4.865   5.920   2.043  0.8477 -0.1888  0.7466
 1581TIP3   OH221314   2.678   4.630   7.366  0.4950 -0.2410 -0.4449
 1581TIP3    H121315   2.738   4.565   7.404 -0.3919 -0.2677  0.9856
 1581TIP3    H221316   2.610   4.578   7.324  1.6208 -0.2140 -2.4156
 1582TIP3   OH221317   4.868   3.373   1.414 -0.5052  0.4295 -0.5071
 1582TIP3    H121318   4.821   3.436   1.469  2.0272  1.8034  0.2551
 1582TIP3    H221319   4.830   3.384   1.327 -4.3273 -1.4928  0.6874
 1583TIP3   OH221320   4.440   0.225   2.321 -0.1320 -0.3629 -0.5212
 1583TIP3    H121321   4.424   0.144   2.368  1.7431  0.1724  1.1647
 1583TIP3    H221322   4.527   0.213   2.281 -0.6093  0.1533 -1.7554
 1584TIP3   OH221323   0.712   4.260   2.681 -0.0980 -0.2173 -0.6154
 1584TIP3    H121324   0.705   4.287   2.772  0.3952  0.0430 -0.6539
 1584TIP3    H221325   0.645   4.311   2.635  0.7582  0.8767 -0.6719
 1585TIP3   OH221326   2.348   2.902   1.831 -0.4472 -0.9122 -0.0388
 1585TIP3    H121327   2.435   2.875   1.858  0.3663  1.8530  0.4531
 1585TIP3    H221328   2.292   2.881   1.906  0.1776 -1.0327  0.4008
 1586TIP3   OH221329   4.230   1.322   0.827  0.0844 -0.0949 -0.5398
 1586TIP3    H121330   4.320   1.288   0.833  0.2632  0.3701 -0.5586
 1586TIP3    H221331   4.196   1.314   0.916 -0.0678 -0.8480 -0.6629
 1587TIP3   OH221332   3.511   5.057   1.591  0.2522 -0.1662  0.6400
 1587TIP3    H121333   3.543   5.136   1.635 -1.7947  0.3317  1.3131
 1587TIP3    H221334   3.583   4.995   1.600  1.4357  1.2211  1.1711
 1588TIP3   OH221335   0.234   3.280   0.531 -0.4814 -0.2101  0.3254
 1588TIP3    H121336   0.185   3.198   0.522  1.7459 -1.6189  0.1221
 1588TIP3    H221337   0.254   3.306   0.441 -0.3673  0.0488  0.4240
 1589TIP3   OH221338   2.154   1.903   7.166  0.1257 -0.1070 -0.3252
 1589TIP3    H121339   2.069   1.865   7.145 -0.5026  1.0343  0.1073
 1589TIP3    H221340   2.193   1.922   7.080 -0.3741  0.0567 -0.5197
 1590TIP3   OH221341   1.154   1.320   0.238 -0.1421 -0.0948 -0.0954
 1590TIP3    H121342   1.172   1.240   0.287 -3.4282 -0.4185  0.8453
 1590TIP3    H221343   1.209   1.314   0.160  1.4364 -2.0852  1.0877
 1591TIP3   OH221344   0.724   3.184   8.649  0.0537  0.0838 -0.3995
 1591TIP3    H121345   0.657   3.251   8.634  0.2216  0.2652 -0.3490
 1591TIP3    H221346   0.679   3.116   8.699  0.1498  0.6397  0.4593
 1592TIP3   OH221347   0.723   1.673   1.113 -0.1485  0.1653  0.2962
 1592TIP3    H121348   0.784   1.695   1.043 -0.7169  0.1040 -0.2272
 1592TIP3    H221349   0.773   1.614   1.170  0.2541  0.0453 -0.1714
 1593TIP3   OH221350   4.215   4.511   1.641 -0.0755 -0.5110  0.0818
 1593TIP3    H121351   4.281   4.443   1.655  0.7500 -0.4656 -3.0184
 1593TIP3    H221352   4.219   4.564   1.721  2.9898 -1.0392  0.4148
 1594TIP3   OH221353   5.690   3.342   7.966  0.3635  0.3364 -0.3244
 1594TIP3    H121354   5.743   3.372   8.040  0.5582  1.3668 -0.8628
 1594TIP3    H221355   5.713   3.401   7.895  0.2694 -0.7192 -1.2536
 1595TIP3   OH221356   4.345   1.243   8.875  0.2826  0.1286  0.0193
 1595TIP3    H121357   4.319   1.151   8.880  0.0312  0.2247  0.4560
 1595TIP3    H221358   4.362   1.257   8.782 -2.2507  0.3314 -0.4836
 1596TIP3   OH221359   3.398   0.386   8.586 -0.2295 -0.3210 -0.0483
 1596TIP3    H121360   3.365   0.474   8.602  0.2212  0.0689 -1.1975
 1596TIP3    H221361   3.329   0.343   8.536  0.4266  0.0975 -1.3712
 1597TIP3   OH221362   6.022   1.508   2.719 -0.0409  0.1235  0.6065
 1597TIP3    H121363   6.067   1.591   2.701  0.2766 -0.5902 -2.5110
 1597TIP3    H221364   6.091   1.443   2.715 -0.4700 -0.4555  1.9545
 1598TIP3   OH221365   1.634   5.596   0.472 -0.2816 -0.1043  0.3333
 1598TIP3    H121366   1.689   5.521   0.450 -0.8781 -0.3006 -0.5848
 1598TIP3    H221367   1.556   5.557   0.512 -1.1764 -0.1214 -1.3223
 1599TIP3   OH221368   3.070   2.465   0.049 -0.6056 -0.1464  0.2777
 1599TIP3    H121369   3.103   2.518  -0.023 -2.0236  2.2781  1.2628
 1599TIP3    H221370   2.983   2.436   0.020 -0.1374 -1.3599  0.0377
 1600TIP3   OH221371   5.101   3.123   1.206  0.4589  0.5971  0.2137
 1600TIP3    H121372   5.096   3.164   1.119  1.7018  1.1302  0.3792
 1600TIP3    H221373   5.167   3.173   1.252 -0.2321  0.3493  1.5125
 1601TIP3   OH221374   5.104   3.099   8.370 -0.1541 -0.0282 -0.2660
 1601TIP3    H121375   5.186   3.134   8.405  0.6168 -1.3284 -0.7020
 1601TIP3    H221376   5.070   3.043   8.440 -0.1747 -0.2333 -0.4385
 1602TIP3   OH221377   2.279   3.217   9.120  0.4277 -0.4016 -0.3999
 1602TIP3    H121378   2.312   3.303   9.096  1.0017 -0.4132  0.2961
 1602TIP3    H221379   2.226   3.189   9.046  0.4136  0.4588 -0.7169
 1603TIP3   OH221380   1.673   2.133   0.555 -0.4549  0.1016 -0.3712
 1603TIP3    H121381   1.709   2.080   0.484  0.5397 -1.1625  1.0124
 1603TIP3    H221382   1.740   2.199   0.572  0.4921 -1.1526  1.0157
 1604TIP3   OH221383   5.910   4.898   0.369 -0.4058  0.5578 -0.7084
 1604TIP3    H121384   5.832   4.936   0.409  0.7427  1.0995  1.1449
 1604TIP3    H221385   5.884   4.810   0.344 -1.3453  0.3715  0.7971
 1605TIP3   OH221386   1.817   4.266   8.145 -0.3155  0.5473  0.2976
 1605TIP3    H121387   1.758   4.282   8.071 -0.1172  1.1148  0.2587
 1605TIP3    H221388   1.780   4.318   8.216 -1.3874 -1.1790  1.0619
 1606TIP3   OH221389   1.867   3.254   1.620 -0.2616  0.6431 -0.2063
 1606TIP3    H121390   1.926   3.316   1.577 -0.5671  1.2047  0.1599
 1606TIP3    H221391   1.826   3.205   1.548 -0.1860  1.0280 -0.5161
 1607TIP3   OH221392   2.355   2.094   2.035 -0.2987  0.4672  1.0394
 1607TIP3    H121393   2.332   2.013   2.082 -0.9697 -0.1992 -0.3588
 1607TIP3    H221394   2.366   2.159   2.104 -0.3934 -0.6564  2.1721
 1608TIP3   OH221395   2.733   4.364   8.430 -0.1462  0.2765 -0.0664
 1608TIP3    H121396   2.713   4.454   8.402 -0.4192  1.2015  2.7024
 1608TIP3    H221397   2.651   4.316   8.416 -0.3583  0.7609 -0.5164
 1609TIP3   OH221398   1.048   6.342   0.430 -0.0791 -0.3883 -0.1000
 1609TIP3    H121399   0.958   6.358   0.458 -0.6937 -2.0356 -1.0070
 1609TIP3    H221400   1.090   6.428   0.437 -1.7422  0.4547  0.2287
 1610TIP3   OH221401   5.578   3.356   2.749  0.1258 -0.6143 -0.1342
 1610TIP3    H121402   5.528   3.275   2.763 -0.7550  0.1184  1.1428
 1610TIP3    H221403   5.663   3.338   2.789  0.5948 -1.5145 -1.4471
 1611TIP3   OH221404   1.247   4.851   8.245  0.2579 -0.3487  0.0280
 1611TIP3    H121405   1.177   4.911   8.222 -1.0350 -0.7965  2.4253
 1611TIP3    H221406   1.288   4.827   8.161 -1.6102  0.9175 -1.3088
 1612TIP3   OH221407   4.740   0.197   0.422 -0.1800 -0.0006  0.0377
 1612TIP3    H121408   4.785   0.116   0.399 -0.3762 -0.6083  1.6443
 1612TIP3    H221409   4.737   0.196   0.518 -0.8505  1.5440  0.0551
 1613TIP3   OH221410   0.932   3.726   8.889  0.0778  0.0130 -0.1601
 1613TIP3    H121411   0.887   3.676   8.821  2.3581 -3.2297  0.4346
 1613TIP3    H221412   0.866   3.742   8.955 -1.0459 -1.2960 -0.9092
 1614TIP3   OH221413   1.064   2.576   8.703  0.1893 -0.1301  0.6569
 1614TIP3    H121414   1.047   2.482   8.703 -2.0646  0.2035 -0.6300
 1614TIP3    H221415   1.011   2.610   8.775 -0.2025  0.3007  0.1761
 1615TIP3   OH221416   4.806   1.418   1.200 -0.2800 -0.2080 -0.1924
 1615TIP3    H121417   4.832   1.495   1.149 -0.2243 -0.5507 -0.6911
 1615TIP3    H221418   4.719   1.395   1.167  0.1408 -0.9900 -0.8121
 1616TIP3   OH221419   5.296   0.054   1.236 -0.2948  0.3171  0.0699
 1616TIP3    H121420   5.372   0.109   1.253  0.2757 -0.6645  0.8216
 1616TIP3    H221421   5.327  -0.035   1.254 -0.3343 -0.6383 -3.7207
 1617TIP3   OH221422   0.346   3.673   1.592  0.2678 -0.1492  0.1300
 1617TIP3    H121423   0.270   3.646   1.539  1.3358 -3.2092 -0.0179
 1617TIP3    H221424   0.315   3.665   1.683 -0.5839  2.0662  0.1106
 1618TIP3   OH221425   3.377   1.978   8.958  0.4090  0.5183 -0.0557
 1618TIP3    H121426   3.398   1.951   9.048 -1.1714 -1.5006 -0.2201
 1618TIP3    H221427   3.286   2.007   8.964  0.6276  1.4074 -0.8406
 1619TIP3   OH221428   5.874   0.525   1.175  0.1931  0.0398 -0.0028
 1619TIP3    H121429   5.844   0.500   1.088 -1.5637 -1.8021  1.0449
 1619TIP3    H221430   5.936   0.457   1.200  0.4136  0.3634  0.3429
 1620TIP3   OH221431   0.094   5.645   1.528 -0.1815  0.0384  0.1258
 1620TIP3    H121432   0.046   5.604   1.600 -0.5081  0.4023  0.1181
 1620TIP3    H221433   0.179   5.667   1.565 -0.6175  0.9201  0.6288
 1621TIP3   OH221434   0.898   5.663   6.778 -0.5173  0.5118  0.6426
 1621TIP3    H121435   0.821   5.719   6.778 -1.1495 -0.2753 -1.3614
 1621TIP3    H221436   0.863   5.574   6.783  0.0795  0.0545 -1.8138
 1622TIP3   OH221437   0.921   0.809   1.102 -0.3926  0.3983 -0.0422
 1622TIP3    H121438   0.866   0.882   1.129  1.5011  2.1309 -0.5457
 1622TIP3    H221439   0.996   0.851   1.058  0.3268 -1.9034 -1.1876
 1623TIP3   OH221440   5.607   2.422   7.413 -0.4719  0.1278  0.2717
 1623TIP3    H121441   5.690   2.453   7.378  1.2628 -0.0575  3.7718
 1623TIP3    H221442   5.569   2.498   7.457 -1.4477 -0.1492 -0.0685
 1624TIP3   OH221443   0.523   5.636   1.359 -0.2644 -0.0482  0.1242
 1624TIP3    H121444   0.535   5.691   1.282 -0.7750  0.0291  0.0983
 1624TIP3    H221445   0.568   5.683   1.429 -1.0805  0.6382  0.2030
 1625TIP3   OH221446   6.155   3.535   2.377 -0.4387  0.3823  0.0732
 1625TIP3    H121447   6.070   3.577   2.386 -0.1411  0.7654  1.2534
 1625TIP3    H221448   6.135   3.442   2.367 -1.0465  0.6345 -1.3817
 1626TIP3   OH221449   6.394   1.915   7.232 -0.0199  0.1520  0.0137
 1626TIP3    H121450   6.429   1.851   7.294 -0.8840 -1.3778 -1.0100
 1626TIP3    H221451   6.359   1.984   7.287  1.0755 -0.1660  1.1546
 1627TIP3   OH221452   5.017   2.257   9.169 -0.2663 -0.0465 -0.5035
 1627TIP3    H121453   5.106   2.222   9.175 -0.1621  0.3006  0.1024
 1627TIP3    H221454   5.000   2.293   9.256 -1.7031 -1.7880  0.0191
 1628TIP3   OH221455   6.368   3.610   6.742 -0.1253 -0.2454  0.3472
 1628TIP3    H121456   6.382   3.657   6.659 -0.4610 -1.2999 -0.3237
 1628TIP3    H221457   6.283   3.642   6.773 -0.7909 -1.0417 -0.5732
 1629TIP3   OH221458   4.862   0.246   7.518  0.0991  0.5998  0.1404
 1629TIP3    H121459   4.898   0.160   7.542 -1.8446 -0.3208 -0.0336
 1629TIP3    H221460   4.767   0.234   7.524 -0.2260  2.5848 -0.4844
 1630TIP3   OH221461   1.918   3.117   8.675  0.2969  0.1920  0.1605
 1630TIP3    H121462   1.962   3.085   8.596 -0.8184  1.1459 -0.8814
 1630TIP3    H221463   1.828   3.132   8.648 -0.6882 -1.5721  2.2167
 1631TIP3   OH221464   0.254   4.415   0.336  0.5044  0.4073  0.2963
 1631TIP3    H121465   0.265   4.507   0.361 -2.6495  0.7539  0.8363
 1631TIP3    H221466   0.243   4.417   0.241  0.8744  0.5417  0.2564
 1632TIP3   OH221467   1.075   4.738   7.017  0.4655  0.7006  0.3653
 1632TIP3    H121468   1.059   4.830   6.997  0.0719  0.3399 -1.1668
 1632TIP3    H221469   1.001   4.692   6.976 -0.0451 -0.2124  2.2270
 1633TIP3   OH221470   3.704   4.646   9.122  0.1992  0.0851  0.0091
 1633TIP3    H121471   3.665   4.676   9.204  0.1249 -0.2225  0.0850
 1633TIP3    H221472   3.686   4.717   9.059 -0.5681 -0.1072  0.0123
 1634TIP3   OH221473   2.276   3.627   0.432 -0.0109  0.4636  0.0213
 1634TIP3    H121474   2.192   3.672   0.426 -0.0942  0.2012 -0.8820
 1634TIP3    H221475   2.300   3.634   0.524 -0.8491  0.8541  0.2198
 1635TIP3   OH221476   4.533   4.906   8.745  0.0033 -0.2523 -0.6983
 1635TIP3    H121477   4.559   4.893   8.654  0.9310  0.8833 -0.6141
 1635TIP3    H221478   4.439   4.925   8.740 -0.3150 -1.7500 -1.2431
 1636TIP3   OH221479   6.250   6.108   7.833 -0.5513  0.1366 -0.3094
 1636TIP3    H121480   6.185   6.148   7.774  1.3398  1.0336 -1.9250
 1636TIP3    H221481   6.216   6.124   7.921 -3.0874 -0.5001 -1.0953
 1637TIP3   OH221482   2.828   1.429   0.269 -0.7303 -0.5784 -0.2283
 1637TIP3    H121483   2.887   1.372   0.220  0.6244  1.5887 -1.2678
 1637TIP3    H221484   2.758   1.450   0.207  1.1475  2.4189 -1.5475
 1638TIP3   OH221485   3.471   3.866   1.607  0.0952  0.1886  0.0464
 1638TIP3    H121486   3.454   3.847   1.515 -0.9970  1.8460 -0.1572
 1638TIP3    H221487   3.459   3.961   1.614  1.6250  0.3197  1.6123
 1639TIP3   OH221488   5.458   2.790   2.740  0.2177  0.2458  0.4499
 1639TIP3    H121489   5.471   2.699   2.765 -0.8918  0.6063  2.5271
 1639TIP3    H221490   5.366   2.794   2.711 -0.0338  0.8800  1.3045
 1640TIP3   OH221491   4.275   1.992   0.692 -0.5250  0.4635 -0.3000
 1640TIP3    H121492   4.235   1.909   0.668 -1.3145  0.8629 -0.3982
 1640TIP3    H221493   4.230   2.019   0.772  1.4571 -0.4086  1.2121
 1641TIP3   OH221494   4.537   2.107   7.309 -0.4729  0.4136 -0.0241
 1641TIP3    H121495   4.487   2.164   7.368 -1.9756 -0.8991  0.0305
 1641TIP3    H221496   4.601   2.064   7.367 -0.5247  0.7022  0.2526
 1642TIP3   OH221497   1.506   3.202   7.969  0.4722 -0.1018 -0.4874
 1642TIP3    H121498   1.516   3.296   7.953  0.6551 -0.1221 -0.4947
 1642TIP3    H221499   1.452   3.197   8.048 -0.0413  0.0029 -0.8229
 1643TIP3   OH221500   3.153   1.234   2.022 -0.0805  0.4922  0.0745
 1643TIP3    H121501   3.193   1.270   2.101  0.8993  0.2646 -0.2955
 1643TIP3    H221502   3.096   1.164   2.055  1.1479 -0.3387  0.5382
 1644TIP3   OH221503   4.881   4.232   8.938 -0.7336  0.3710 -0.2872
 1644TIP3    H121504   4.826   4.271   8.870 -0.5007 -0.3247 -0.8949
 1644TIP3    H221505   4.943   4.177   8.889  1.6085  2.3735  0.1827
 1645TIP3   OH221506   6.053   4.579   8.972  0.2609  0.4242 -0.2728
 1645TIP3    H121507   6.118   4.522   9.013 -2.1943 -2.2406  0.2654
 1645TIP3    H221508   6.022   4.635   9.043 -0.7885 -1.0965  0.5494
 1646TIP3   OH221509   5.719   2.591   1.595  0.0354  0.3776  0.4332
 1646TIP3    H121510   5.760   2.510   1.626  2.0708  0.0590 -2.6355
 1646TIP3    H221511   5.792   2.651   1.581 -1.2783  2.2209  1.1103
 1647TIP3   OH221512   0.060   0.685   0.375 -0.3907 -0.0111 -0.3145
 1647TIP3    H121513  -0.005   0.746   0.410  1.4245  0.8961  1.6410
 1647TIP3    H221514   0.015   0.600   0.375 -1.9984  0.7962 -0.3403
 1648TIP3   OH221515   5.512   5.021   1.831  0.6117  0.5528  0.8264
 1648TIP3    H121516   5.489   4.970   1.909 -0.8438 -0.1892 -0.0629
 1648TIP3    H221517   5.434   5.073   1.812  0.7735  0.3551 -0.4247
 1649TIP3   OH221518   5.738   1.552   0.006 -0.1047 -0.0922 -0.2731
 1649TIP3    H121519   5.765   1.461   0.006 -1.3602 -0.5459  1.8548
 1649TIP3    H221520   5.816   1.601   0.031  0.4614 -0.6065 -1.0012
 1650TIP3   OH221521   3.672   0.254   9.363 -0.5457 -0.8829 -0.2296
 1650TIP3    H121522   3.685   0.337   9.409  0.8072 -1.1606 -0.0662
 1650TIP3    H221523   3.592   0.218   9.402  0.5509 -1.1180  1.9759
 1651TIP3   OH221524   0.921   4.204   8.021  0.5106  0.1500 -0.4023
 1651TIP3    H121525   0.992   4.159   7.975  0.3824 -0.1080 -0.3491
 1651TIP3    H221526   0.844   4.189   7.967  0.1585 -0.9744  0.3744
 1652TIP3   OH221527   1.049   3.287   1.675 -0.2168  0.1725 -0.0158
 1652TIP3    H121528   1.063   3.209   1.620 -0.0104 -0.2855  0.6762
 1652TIP3    H221529   1.049   3.360   1.613  2.3163 -0.0812 -0.4351
 1653TIP3   OH221530   5.304   1.928   6.548 -0.3562  1.2014  0.4142
 1653TIP3    H121531   5.308   2.023   6.564  0.9566  1.0553  1.0444
 1653TIP3    H221532   5.225   1.900   6.595  0.0351  1.7692  1.4442
 1654TIP3   OH221533   2.040   0.042   3.643  0.0870 -0.1141  0.2219
 1654TIP3    H121534   2.121   0.051   3.592 -0.6497  2.2121 -0.6910
 1654TIP3    H221535   1.980  -0.003   3.584  0.3769 -0.8431  0.4799
 1655TIP3   OH221536   5.100   1.608   0.499 -0.0413 -0.2929  0.3173
 1655TIP3    H121537   5.153   1.660   0.438 -1.3327  0.9988  0.2366
 1655TIP3    H221538   5.053   1.673   0.551 -1.0966 -1.3911  0.7843
 1656TIP3   OH221539   5.056   3.251   0.693  0.3158  0.6587 -0.5382
 1656TIP3    H121540   5.112   3.174   0.700  0.1615  0.4143 -1.7657
 1656TIP3    H221541   5.013   3.242   0.607  0.6207  2.3237 -0.8957
 1657TIP3   OH221542   1.809   2.351   7.932 -0.2050  0.7782 -0.3778
 1657TIP3    H121543   1.790   2.261   7.957 -1.4187  0.6008 -1.7565
 1657TIP3    H221544   1.876   2.380   7.993 -0.3614 -0.7967  0.5895
 1658TIP3   OH221545   5.038   4.226   7.463 -0.1438 -0.1142  0.3068
 1658TIP3    H121546   5.116   4.267   7.424  0.5962 -0.3593  1.4478
 1658TIP3    H221547   5.066   4.137   7.483 -0.7867 -0.2657  0.5400
 1659TIP3   OH221548   2.641   0.568   5.088 -0.6686  0.2977 -0.1154
 1659TIP3    H121549   2.594   0.577   5.005 -1.1155  1.0603  0.2116
 1659TIP3    H221550   2.723   0.525   5.064 -0.1977  1.6954 -1.1847
 1660TIP3   OH221551   3.057   1.714   9.118 -0.5812  0.3180 -0.0675
 1660TIP3    H121552   3.112   1.646   9.157 -1.1527 -0.9606 -1.3873
 1660TIP3    H221553   3.107   1.744   9.042 -0.6314  0.8986  0.1301
 1661TIP3   OH221554   0.153   5.518   1.282  0.5655  0.2565 -0.0253
 1661TIP3    H121555   0.145   5.516   1.377  1.6920  1.2242  0.1256
 1661TIP3    H221556   0.086   5.458   1.250  0.3216 -0.2559  1.3855
 1662TIP3   OH221557   2.679   1.527   8.718 -0.4256  0.1859 -0.2032
 1662TIP3    H121558   2.741   1.486   8.659 -0.9649  0.9110 -1.2943
 1662TIP3    H221559   2.723   1.606   8.749 -0.1996 -0.1189  0.2639
 1663TIP3   OH221560   5.839   3.188   2.279  0.5081  0.7143  0.1450
 1663TIP3    H121561   5.780   3.201   2.354  1.1078 -0.5374  0.8610
 1663TIP3    H221562   5.782   3.157   2.209  0.1997  0.0891  0.6566
 1664TIP3   OH221563   1.834   6.083   1.990 -0.6839  0.7533 -0.1804
 1664TIP3    H121564   1.813   6.082   1.897 -0.4774  0.5031 -0.2255
 1664TIP3    H221565   1.814   5.994   2.020 -0.3620  0.7170 -0.0752
 1665TIP3   OH221566   2.317   3.560   6.335  0.0940 -1.0894 -0.1188
 1665TIP3    H121567   2.290   3.649   6.356  1.3013 -0.1104 -2.3243
 1665TIP3    H221568   2.264   3.504   6.391 -1.4757  0.9762  0.5549
 1666TIP3   OH221569   6.126   6.055   1.248  0.1873  0.5658  0.3917
 1666TIP3    H121570   6.170   6.121   1.302  0.0976  0.8579  0.1118
 1666TIP3    H221571   6.178   5.976   1.260  1.0821  1.0326 -0.3251
 1667TIP3   OH221572   4.865   3.652   1.747  0.1460  0.1754  0.0454
 1667TIP3    H121573   4.939   3.592   1.739  0.1961  0.1313  0.7714
 1667TIP3    H221574   4.896   3.722   1.804 -0.0753  0.6383 -0.3908
 1668TIP3   OH221575   2.796   2.554   7.010  0.8750 -0.6219 -0.1221
 1668TIP3    H121576   2.722   2.495   7.025 -1.0867  1.4817 -0.7955
 1668TIP3    H221577   2.758   2.628   6.962  3.5857  0.2956 -1.0674
 1669TIP3   OH221578   2.647   3.506   1.250 -0.2704  0.1224  0.0774
 1669TIP3    H121579   2.645   3.453   1.330 -1.5775  1.0389  0.6971
 1669TIP3    H221580   2.626   3.445   1.180 -0.7110 -0.4012  0.6476
 1670TIP3   OH221581   1.623   0.442   0.360 -0.0138 -0.2658  0.6135
 1670TIP3    H121582   1.616   0.526   0.313 -1.5679  0.1073  1.4553
 1670TIP3    H221583   1.714   0.439   0.389  0.4395  0.4586 -0.6300
 1671TIP3   OH221584   5.910   5.858   7.509  0.2011 -0.2966  0.4404
 1671TIP3    H121585   5.838   5.818   7.461 -0.4993  2.2342 -0.7722
 1671TIP3    H221586   5.988   5.839   7.456 -0.3121  0.9639 -0.8326
 1672TIP3   OH221587   2.595   0.051   2.630 -0.0532  0.1210  0.8450
 1672TIP3    H121588   2.684   0.038   2.598 -0.7149  0.0860 -1.0881
 1672TIP3    H221589   2.572  -0.032   2.673  0.6579 -0.0401  0.9208
 1673TIP3   OH221590   4.171   2.381  -0.004 -0.1777  0.7143  0.2897
 1673TIP3    H121591   4.110   2.308  -0.016  0.3050  0.5477 -1.4116
 1673TIP3    H221592   4.241   2.344   0.050 -0.0536 -0.0227 -0.3521
 1674TIP3   OH221593   1.313   5.684   8.819  0.2990 -0.0143 -0.1191
 1674TIP3    H121594   1.224   5.651   8.819  0.5549 -0.7159  0.1478
 1674TIP3    H221595   1.304   5.779   8.808 -0.6189  0.2803  2.4064
 1675TIP3   OH221596   5.490   0.438   1.011 -0.1903 -0.5520  0.0125
 1675TIP3    H121597   5.582   0.462   1.009 -0.0984 -0.1189  3.2593
 1675TIP3    H221598   5.444   0.515   0.977  0.5952 -0.3248 -0.5423
 1676TIP3   OH221599   1.517   2.530   2.158  0.1408  0.3716 -0.9413
 1676TIP3    H121600   1.452   2.599   2.173 -2.0020 -1.3012 -1.9934
 1676TIP3    H221601   1.565   2.560   2.081 -0.9066  0.6462 -1.5202
 1677TIP3   OH221602   4.597   2.249   7.940  0.4317 -0.0319 -0.2782
 1677TIP3    H121603   4.593   2.336   7.980  1.2995  0.6860 -1.7077
 1677TIP3    H221604   4.520   2.203   7.976  0.5233  0.9573  1.2859
 1678TIP3   OH221605   4.615   4.405   7.219 -0.0070 -0.0419 -0.3437
 1678TIP3    H121606   4.523   4.380   7.229  0.1158  0.1058  1.6284
 1678TIP3    H221607   4.613   4.500   7.210 -0.0193  0.1018  0.9396
 1679TIP3   OH221608   4.320   0.381   0.471  0.3388 -0.1877  0.6159
 1679TIP3    H121609   4.369   0.320   0.415 -1.1056 -1.2017  0.3909
 1679TIP3    H221610   4.242   0.332   0.496 -0.3022  1.1871  1.3967
 1680TIP3   OH221611   0.609   1.486   1.696 -0.3343  0.2796 -0.5646
 1680TIP3    H121612   0.670   1.451   1.760  0.2557  0.3061 -1.1048
 1680TIP3    H221613   0.664   1.514   1.623 -0.9150  1.1137 -0.6902
 1681TIP3   OH221614   3.312   1.184   0.678 -0.1283  0.2044  0.0314
 1681TIP3    H121615   3.345   1.210   0.592 -0.8639  0.9246 -0.0395
 1681TIP3    H221616   3.223   1.154   0.662 -0.0160 -0.3631  0.4368
 1682TIP3   OH221617   0.544   5.704   6.154  0.3363 -0.3417  0.3954
 1682TIP3    H121618   0.488   5.735   6.083  0.8778  0.6515  0.3838
 1682TIP3    H221619   0.586   5.626   6.119  0.7743  0.2695 -0.4710
 1683TIP3   OH221620   2.735   6.182   0.157 -0.1216 -0.1563 -0.1504
 1683TIP3    H121621   2.829   6.199   0.151 -0.0705 -0.6153 -0.8160
 1683TIP3    H221622   2.705   6.237   0.229  0.7421 -0.3645  0.3796
 1684TIP3   OH221623   0.306   3.327   7.605  0.3473  0.1628 -0.2707
 1684TIP3    H121624   0.233   3.389   7.593  0.5309  0.4958  0.3375
 1684TIP3    H221625   0.291   3.261   7.537 -0.2940  0.4487 -0.4219
 1685TIP3   OH221626   5.676   0.596   1.608 -0.2170  0.4226  0.1364
 1685TIP3    H121627   5.667   0.640   1.692 -0.8851  0.9762 -0.2120
 1685TIP3    H221628   5.646   0.660   1.544  0.4774  0.0875 -0.5498
 1686TIP3   OH221629   4.332   1.511   8.255 -0.6829  0.3984  0.0459
 1686TIP3    H121630   4.294   1.443   8.310 -0.6203  0.0613 -0.3227
 1686TIP3    H221631   4.409   1.541   8.304 -0.1721 -0.4492 -0.2046
 1687TIP3   OH221632   6.288   3.222   2.065 -0.1302  0.1388 -0.5744
 1687TIP3    H121633   6.285   3.126   2.068  1.1029  0.1076  0.9134
 1687TIP3    H221634   6.250   3.250   2.148  0.9982  0.8649 -0.2841
 1688TIP3   OH221635   3.112   0.387   9.278 -0.2644 -0.2797 -0.3607
 1688TIP3    H121636   3.030   0.395   9.229 -1.8206  0.4499  2.1546
 1688TIP3    H221637   3.158   0.469   9.262 -1.2631  0.4189  0.1805
 1689TIP3   OH221638   5.360   3.015   8.188  0.0619 -0.0398  0.0159
 1689TIP3    H121639   5.319   3.024   8.274  0.7938 -1.1556  0.5066
 1689TIP3    H221640   5.431   3.080   8.188 -1.3702  1.6377 -0.6970
 1690TIP3   OH221641   0.853   2.200   0.054  0.1935  0.0831  0.4995
 1690TIP3    H121642   0.779   2.180  -0.003 -0.0712 -0.8018  1.1398
 1690TIP3    H221643   0.922   2.228  -0.006 -0.2252 -0.3791 -0.2123
 1691TIP3   OH221644   6.175   2.662   2.894 -0.0626 -0.0636 -0.0669
 1691TIP3    H121645   6.228   2.641   2.971  2.0307 -0.7734 -1.6144
 1691TIP3    H221646   6.174   2.757   2.891 -0.8213 -0.0000  1.2222
 1692TIP3   OH221647   1.212   6.077   7.011  0.7251 -0.4399 -0.2174
 1692TIP3    H121648   1.164   6.142   7.062  0.8303 -1.4526  1.2234
 1692TIP3    H221649   1.192   6.098   6.920  0.9421  1.7381  0.1871
 1693TIP3   OH221650   2.327   5.207   0.353  0.0845 -0.0216 -0.5682
 1693TIP3    H121651   2.375   5.169   0.427 -0.1632 -0.0917 -0.4441
 1693TIP3    H221652   2.337   5.142   0.283  0.9936  0.4047 -0.8517
 1694TIP3   OH221653   1.185   2.965   6.836 -0.2755  0.5653 -0.3224
 1694TIP3    H121654   1.207   2.873   6.851  1.5672  0.8287 -1.1038
 1694TIP3    H221655   1.089   2.967   6.831 -0.3062 -1.5678 -1.8601
 1695TIP3   OH221656   0.625   1.707   8.809  0.2697  0.0947 -0.4260
 1695TIP3    H121657   0.702   1.734   8.759  1.2161 -0.2493  0.8065
 1695TIP3    H221658   0.627   1.611   8.807 -2.0636 -0.0328 -3.2464
 1696TIP3   OH221659   1.078   6.362   7.916 -0.3026  0.0756  0.3088
 1696TIP3    H121660   1.074   6.403   7.829 -0.6054  1.8391  1.1266
 1696TIP3    H221661   1.171   6.342   7.929 -0.2273 -0.0073 -0.3161
 1697TIP3   OH221662   4.086   3.851   9.169 -0.1303 -0.1091  0.5181
 1697TIP3    H121663   4.029   3.921   9.201  0.9840 -0.1476  2.7235
 1697TIP3    H221664   4.136   3.823   9.245  3.7699  0.7395 -1.4732
 1698TIP3   OH221665   2.299   5.979   2.968  0.4910 -0.2603  0.5813
 1698TIP3    H121666   2.374   6.020   2.924  0.0757  1.2868  1.2585
 1698TIP3    H221667   2.263   5.920   2.902  1.2327  0.3100 -0.3699
 1699TIP3   OH221668   6.380   4.673   0.282  0.1311 -0.2497  0.5276
 1699TIP3    H121669   6.309   4.709   0.229  0.9109  0.4392 -0.0643
 1699TIP3    H221670   6.397   4.587   0.244  0.7521  0.2768 -0.4272
 1700TIP3   OH221671   1.231   6.413   8.364 -0.0079  0.1166 -0.2106
 1700TIP3    H121672   1.236   6.509   8.368 -0.3347  0.1620 -0.7634
 1700TIP3    H221673   1.141   6.393   8.388 -0.0001 -0.0349 -0.3041
 1701TIP3   OH221674   2.884   5.327   0.057  0.2862  0.0325  0.2013
 1701TIP3    H121675   2.909   5.324  -0.035  1.0679  2.3940  0.2486
 1701TIP3    H221676   2.948   5.387   0.097 -0.7748  0.0357  2.0198
 1702TIP3   OH221677   2.290   5.055   1.665 -0.4851  0.0545  0.3219
 1702TIP3    H121678   2.278   4.982   1.725 -0.5694  0.1570  0.4305
 1702TIP3    H221679   2.218   5.047   1.602 -2.3508  1.7605  2.0755
 1703TIP3   OH221680   2.629   4.156   1.891  0.3186  0.0504 -0.3277
 1703TIP3    H121681   2.693   4.085   1.883 -1.6347 -1.7755 -0.5730
 1703TIP3    H221682   2.625   4.195   1.804  0.5312 -0.3495 -0.5208
 1704TIP3   OH221683   2.327   5.637   8.031 -0.0562 -0.4627  0.6192
 1704TIP3    H121684   2.408   5.603   7.994 -0.9999 -2.4301  0.2128
 1704TIP3    H221685   2.334   5.732   8.022  1.1331 -0.7123 -1.7031
 1705TIP3   OH221686   5.285   4.428   0.948 -0.0594 -0.1892  0.2346
 1705TIP3    H121687   5.343   4.364   0.905 -0.7163 -0.0417 -0.9211
 1705TIP3    H221688   5.304   4.510   0.904 -0.3450  0.0900  0.6300
 1706TIP3   OH221689   5.239   3.704   6.577  0.2273 -0.5153  0.0069
 1706TIP3    H121690   5.327   3.737   6.562  0.2471 -0.9689 -0.9775
 1706TIP3    H221691   5.222   3.647   6.502 -0.3899 -1.4915  0.8637
 1707TIP3   OH221692   5.150   4.610   7.300 -0.0104  0.0913 -0.6571
 1707TIP3    H121693   5.171   4.547   7.231 -1.3590 -0.9304 -0.1854
 1707TIP3    H221694   5.076   4.570   7.346  1.6931  0.0207  2.2641
 1708TIP3   OH221695   5.209   6.071   1.256 -0.1532 -0.0027  0.5137
 1708TIP3    H121696   5.294   6.081   1.214 -0.5879 -1.2376 -0.7479
 1708TIP3    H221697   5.155   6.142   1.221 -0.0140  0.0040  0.3155
 1709TIP3   OH221698   3.288   0.708   5.777  0.4075 -0.2063 -0.1436
 1709TIP3    H121699   3.337   0.743   5.703  0.3262  1.6015  0.6032
 1709TIP3    H221700   3.218   0.773   5.792 -1.5217 -2.1068 -0.4396
 1710TIP3   OH221701   4.681   1.734   8.957  0.1492  0.0178  0.5399
 1710TIP3    H121702   4.685   1.640   8.937  1.7489 -0.2927  2.0499
 1710TIP3    H221703   4.668   1.776   8.872  0.0874 -1.5305 -0.2621
 1711TIP3   OH221704   1.503   5.259   2.919 -0.1055 -0.2025  0.3040
 1711TIP3    H121705   1.562   5.308   2.977  0.8255  0.8318 -1.4335
 1711TIP3    H221706   1.545   5.173   2.911  0.0848 -0.1489  0.6829
 1712TIP3   OH221707   2.592   3.364   0.258 -0.5643 -0.4550 -0.1089
 1712TIP3    H121708   2.521   3.420   0.228  0.3914  1.1667  0.5061
 1712TIP3    H221709   2.636   3.416   0.326  1.2970 -1.3288 -0.5946
 1713TIP3   OH221710   3.767   3.131   7.866 -0.2626 -0.0789  0.1457
 1713TIP3    H121711   3.688   3.097   7.909 -0.3953  0.9201  0.7146
 1713TIP3    H221712   3.748   3.223   7.849  0.0211 -0.3103 -1.5612
 1714TIP3   OH221713   1.234   0.979   2.391 -0.2990  0.0650 -0.7708
 1714TIP3    H121714   1.271   0.892   2.407 -1.3489 -0.3217 -0.3908
 1714TIP3    H221715   1.290   1.038   2.441 -0.5910 -0.5889  0.3578
 1715TIP3   OH221716   0.420   0.737   9.033 -0.0884  0.0122  0.4242
 1715TIP3    H121717   0.350   0.694   9.081  0.8821 -0.5072  1.4144
 1715TIP3    H221718   0.431   0.822   9.076  0.7433 -0.4295  1.0963
 1716TIP3   OH221719   6.323   5.358   2.187  0.0966  0.0640  0.0620
 1716TIP3    H121720   6.400   5.404   2.222 -0.7246  2.1777 -0.7375
 1716TIP3    H221721   6.254   5.424   2.186 -1.3729 -1.4104 -0.5247
 1717TIP3   OH221722   6.090   5.585   7.405  0.2538 -0.0761  0.0586
 1717TIP3    H121723   6.142   5.663   7.419 -0.8958  0.7763 -0.2633
 1717TIP3    H221724   6.085   5.576   7.309 -1.1804  0.5648  0.0506
 1718TIP3   OH221725   2.998   2.758   1.226 -0.2426 -0.0596  0.5487
 1718TIP3    H121726   3.014   2.852   1.211 -2.2183  0.2503 -0.0139
 1718TIP3    H221727   2.927   2.757   1.290  0.7221 -1.2188  1.6103
 1719TIP3   OH221728   5.733   1.823   8.500  0.2130 -0.6693  0.4110
 1719TIP3    H121729   5.651   1.866   8.526  0.3513  0.1079 -0.3810
 1719TIP3    H221730   5.716   1.793   8.411  1.2157  0.6871 -0.2732
 1720TIP3   OH221731   2.601   0.224   9.071  0.3042  0.2514  0.6951
 1720TIP3    H121732   2.640   0.282   9.135 -0.8723  0.8836  0.8624
 1720TIP3    H221733   2.507   0.242   9.076  0.1482  0.0369 -0.9246
 1721TIP3   OH221734   2.474   1.318   1.873  0.1859  0.0341 -0.6185
 1721TIP3    H121735   2.437   1.396   1.831  0.2585  1.1291  1.1991
 1721TIP3    H221736   2.546   1.352   1.927  0.6190 -1.3919 -0.2447
 1722TIP3   OH221737   2.867   0.850   5.923 -0.2118 -0.3788 -0.6312
 1722TIP3    H121738   2.788   0.837   5.872  0.7667  0.9985 -2.6136
 1722TIP3    H221739   2.838   0.898   6.001 -1.1867  1.0127 -1.8166
 1723TIP3   OH221740   5.376   3.777   0.043  0.3923  0.0413  0.0118
 1723TIP3    H121741   5.337   3.696   0.075  0.0212  0.5539  0.8799
 1723TIP3    H221742   5.305   3.823  -0.001 -0.0599  1.0314  1.7015
 1724TIP3   OH221743   3.862   1.310   8.880  0.0723  0.0337  0.0647
 1724TIP3    H121744   3.789   1.367   8.902  2.5581  3.4349  0.4337
 1724TIP3    H221745   3.897   1.281   8.964  2.0078  2.5907  0.2530
 1725TIP3   OH221746   0.636   3.145   1.165  0.5595 -0.4016 -0.1881
 1725TIP3    H121747   0.696   3.190   1.105 -0.9049 -0.4158 -1.7515
 1725TIP3    H221748   0.561   3.204   1.172  0.2973 -0.8507  0.9063
 1726TIP3   OH221749   2.568   3.676   8.090  0.3049 -0.3317 -0.4640
 1726TIP3    H121750   2.656   3.680   8.053  0.7684  0.9765  0.6868
 1726TIP3    H221751   2.582   3.673   8.185 -0.8863 -1.1018 -0.2888
 1727TIP3   OH221752   4.363   4.555   1.943  0.2499 -0.3176 -0.5723
 1727TIP3    H121753   4.391   4.468   1.969 -0.0599 -0.7299 -1.5707
 1727TIP3    H221754   4.355   4.604   2.025 -1.2384 -1.7066  0.1463
 1728TIP3   OH221755   4.317   3.013   8.029 -0.2312 -0.0641  0.0592
 1728TIP3    H121756   4.231   3.001   7.989 -0.4895  0.8458  0.3087
 1728TIP3    H221757   4.377   2.962   7.974 -1.1460 -2.0515  0.8324
 1729TIP3   OH221758   0.190   4.545   1.300  0.2613  0.2868  0.3748
 1729TIP3    H121759   0.137   4.538   1.221 -0.8562 -3.1073  1.2405
 1729TIP3    H221760   0.149   4.616   1.350 -0.2683  1.1140 -1.1728
 1730TIP3   OH221761   5.542   1.040   9.245 -0.1958 -0.1810 -0.6043
 1730TIP3    H121762   5.486   1.117   9.255 -0.4784 -0.6011  1.5373
 1730TIP3    H221763   5.583   1.029   9.331  0.4621 -1.9545 -1.1023
 1731TIP3   OH221764   5.406   5.913   9.062 -0.3030  0.3003 -0.2308
 1731TIP3    H121765   5.495   5.877   9.059 -0.7617 -0.9926  0.8436
 1731TIP3    H221766   5.353   5.844   9.102 -2.1198  0.4341 -2.2176
 1732TIP3   OH221767   0.882   1.434   7.467  0.1375  0.3835  0.7042
 1732TIP3    H121768   0.894   1.347   7.428  1.3243  1.4771 -1.5391
 1732TIP3    H221769   0.787   1.445   7.472 -0.0298 -0.8366  0.6094
 1733TIP3   OH221770   1.038   4.136   7.484 -0.4892 -0.4246 -0.1358
 1733TIP3    H121771   1.043   4.041   7.497 -0.8067 -0.3259  0.7440
 1733TIP3    H221772   0.946   4.157   7.499 -0.3839  0.0486 -0.1566
 1734TIP3   OH221773   0.490   0.986   7.831  0.5120 -0.0903 -0.2941
 1734TIP3    H121774   0.480   0.897   7.866 -0.8695 -0.2593 -1.0383
 1734TIP3    H221775   0.428   0.989   7.758  1.9080  0.8854 -1.4766
 1735TIP3   OH221776   0.603   5.508   7.070 -0.1044  0.0721  0.4906
 1735TIP3    H121777   0.630   5.582   7.125  1.7418  0.5067 -0.8881
 1735TIP3    H221778   0.510   5.495   7.091  0.4042  0.4031  3.4151
 1736TIP3   OH221779   0.925   0.167   7.743 -0.8419 -0.0534  0.3826
 1736TIP3    H121780   0.936   0.095   7.680 -0.4139  0.9225 -0.6926
 1736TIP3    H221781   0.843   0.147   7.788 -1.4651 -0.4764 -0.9006
 1737TIP3   OH221782   5.334   2.502   8.174  0.0436  0.5345 -0.5034
 1737TIP3    H121783   5.294   2.531   8.256  1.3889  0.6690  0.1349
 1737TIP3    H221784   5.427   2.522   8.184  0.5058 -0.9913 -1.3788
 1738TIP3   OH221785   2.403   2.636   9.214 -0.7679 -0.5373 -0.8166
 1738TIP3    H121786   2.458   2.680   9.149  1.2054 -0.9778  0.4651
 1738TIP3    H221787   2.384   2.550   9.175  1.3156 -1.2317 -0.4411
 1739TIP3   OH221788   1.896   6.396   1.353  0.9739 -0.0245 -0.0026
 1739TIP3    H121789   1.824   6.334   1.345  1.2101 -0.3443  0.2959
 1739TIP3    H221790   1.881   6.442   1.435  0.2689  1.0155 -0.6946
 1740TIP3   OH221791   1.020   3.925   0.605  0.3984 -0.4527  0.0933
 1740TIP3    H121792   0.984   3.850   0.652 -0.3354 -0.1293  0.0571
 1740TIP3    H221793   1.115   3.912   0.609  0.2855 -1.2793  0.2482
 1741TIP3   OH221794   1.089   0.334   7.857  0.2191  0.0956 -0.3864
 1741TIP3    H121795   1.060   0.338   7.948  1.0060  0.3921 -0.1382
 1741TIP3    H221796   1.029   0.273   7.815  0.2142 -0.5060  0.4703
 1742TIP3   OH221797   4.771   1.504   6.483  0.0749  0.0434  0.4019
 1742TIP3    H121798   4.846   1.552   6.519 -0.3695 -1.0512  2.9972
 1742TIP3    H221799   4.725   1.569   6.429  1.3386  1.5448  1.0411
 1743TIP3   OH221800   0.605   5.446   7.898 -0.2244  0.2877  0.1314
 1743TIP3    H121801   0.635   5.422   7.986  2.0461  2.6224  0.1029
 1743TIP3    H221802   0.636   5.375   7.842 -1.5014 -1.1138  1.1151
 1744TIP3   OH221803   4.745   4.438   8.107  0.2276 -0.0285  0.4661
 1744TIP3    H121804   4.817   4.461   8.048  0.9170  1.2838  1.7716
 1744TIP3    H221805   4.697   4.520   8.120 -1.1219 -0.7358  0.1658
 1745TIP3   OH221806   4.891   4.281   1.625 -0.1273 -0.0331  0.0471
 1745TIP3    H121807   4.916   4.354   1.682 -1.4162 -0.2203  0.9049
 1745TIP3    H221808   4.796   4.274   1.637  0.3663 -4.9761  3.8583
 1746TIP3   OH221809   2.590   1.906   6.993 -0.0069 -0.0042  0.5555
 1746TIP3    H121810   2.631   1.911   6.907 -1.0331 -1.1533 -0.0355
 1746TIP3    H221811   2.632   1.831   7.035 -0.7045 -0.5021  0.3770
 1747TIP3   OH221812   2.037   2.994   9.151 -0.0968  0.4100  0.1139
 1747TIP3    H121813   2.086   2.938   9.212 -0.0645 -0.4759 -0.6967
 1747TIP3    H221814   1.997   2.932   9.090 -1.1682  1.2072 -0.0143
 1748TIP3   OH221815   2.492   6.307   7.417  0.3333  0.1935  0.5333
 1748TIP3    H121816   2.408   6.272   7.447 -0.1598  1.8603  1.2221
 1748TIP3    H221817   2.469   6.390   7.375  1.6324  0.6555  0.7083
 1749TIP3   OH221818   4.643   0.845   1.119  0.1660 -0.1268  0.6346
 1749TIP3    H121819   4.563   0.871   1.074 -0.0480  0.3773  1.2950
 1749TIP3    H221820   4.617   0.838   1.211  0.0991 -3.0398  0.4892
 1750TIP3   OH221821   0.173   0.423   1.855  0.2826  0.3282  0.2973
 1750TIP3    H121822   0.203   0.361   1.922 -0.8270  0.5451  1.0108
 1750TIP3    H221823   0.117   0.484   1.902 -2.4420 -0.8607 -1.1641
 1751TIP3   OH221824   0.067   5.474   8.362  0.4278  1.0815  0.1484
 1751TIP3    H121825   0.067   5.555   8.413  3.0785  0.4825  1.2903
 1751TIP3    H221826   0.057   5.405   8.427  1.2897  0.4049 -0.4054
 1752TIP3   OH221827   4.928   3.910   1.945 -0.3481  0.6648  0.6513
 1752TIP3    H121828   4.890   3.920   2.032  0.7159  3.6208  0.8878
 1752TIP3    H221829   5.023   3.904   1.961 -0.2550 -0.5215 -0.2380
 1753TIP3   OH221830   3.635   4.782   8.068  0.7055 -0.6177  0.0961
 1753TIP3    H121831   3.703   4.714   8.058  1.8571  0.5990 -0.7444
 1753TIP3    H221832   3.554   4.733   8.080  1.1743 -2.2266 -2.5176
 1754TIP3   OH221833   1.490   6.297   0.201  0.2371 -0.5133 -0.2606
 1754TIP3    H121834   1.410   6.245   0.202 -0.1928  0.1261 -0.4589
 1754TIP3    H221835   1.555   6.240   0.160  0.0439 -1.2576  0.4448
 1755TIP3   OH221836   1.282   3.605   9.322 -0.1896 -0.2193  0.4672
 1755TIP3    H121837   1.315   3.545   9.255  0.7567  1.0770 -0.2915
 1755TIP3    H221838   1.360   3.654   9.350 -0.9099  0.5998  1.1056
 1756TIP3   OH221839   2.223   1.795   2.663 -0.1687  0.1955 -0.0247
 1756TIP3    H121840   2.315   1.798   2.692 -1.1601 -1.6281  4.0684
 1756TIP3    H221841   2.185   1.875   2.697 -0.1307  1.1934 -2.1471
 1757TIP3   OH221842   5.698   3.443   0.081  0.0716 -0.3978 -0.2372
 1757TIP3    H121843   5.605   3.465   0.090  0.5781  2.2774 -0.7029
 1757TIP3    H221844   5.704   3.394  -0.001 -0.5504  2.5695 -2.2049
 1758TIP3   OH221845   1.001   2.612   0.217 -0.1329 -0.1172  0.3064
 1758TIP3    H121846   0.929   2.578   0.164 -1.3927  0.7362  1.3919
 1758TIP3    H221847   1.048   2.672   0.158 -0.4292 -0.5249 -0.3540
 1759TIP3   OH221848   0.571   5.792   1.115  0.1254  0.5708 -0.5162
 1759TIP3    H121849   0.527   5.866   1.072 -0.0001  1.1291  0.5579
 1759TIP3    H221850   0.649   5.777   1.061 -0.7686  0.3131 -1.7738
 1760TIP3   OH221851   0.003   0.581   6.675 -0.5884 -0.2045  0.3625
 1760TIP3    H121852   0.088   0.588   6.717 -0.4726 -2.3186  0.5951
 1760TIP3    H221853  -0.030   0.495   6.702 -1.6925 -0.4954 -1.7135
 1761TIP3   OH221854   5.132   3.052   3.371 -0.3015 -0.6089  0.1728
 1761TIP3    H121855   5.207   3.017   3.322  0.9732  2.9186 -0.7468
 1761TIP3    H221856   5.059   3.047   3.309  0.3764  0.2458 -0.7369
 1762TIP3   OH221857   1.457   4.937   3.321 -0.2260 -0.0474  0.4473
 1762TIP3    H121858   1.393   4.986   3.269 -0.8010 -0.6396  0.5761
 1762TIP3    H221859   1.431   4.845   3.311  0.1145 -0.2331  1.1548
 1763TIP3   OH221860   2.717   5.144   7.648  0.2656 -0.0365 -0.3345
 1763TIP3    H121861   2.718   5.061   7.695 -1.0516  0.6638  1.0531
 1763TIP3    H221862   2.657   5.199   7.700  0.6707  1.5810 -1.5193
 1764TIP3   OH221863   2.256   3.798   8.559  0.3223 -0.3981  0.4088
 1764TIP3    H121864   2.163   3.819   8.553  0.0270 -1.7038  0.3008
 1764TIP3    H221865   2.259   3.710   8.596  1.5128 -0.3840  0.3786
 1765TIP3   OH221866   4.737   3.343   7.339  0.1345  0.0233 -0.2962
 1765TIP3    H121867   4.785   3.275   7.386  0.9210 -0.2581 -1.4383
 1765TIP3    H221868   4.692   3.296   7.268 -1.2365  0.3927  0.2947
 1766TIP3   OH221869   5.127   5.749   1.845  0.1254 -0.0413 -0.1788
 1766TIP3    H121870   5.096   5.758   1.755 -0.4005 -1.8916 -0.2192
 1766TIP3    H221871   5.053   5.710   1.892  1.2596 -1.4771  0.4739
 1767TIP3   OH221872   3.185   2.804   1.749  0.4494  0.2897 -0.0373
 1767TIP3    H121873   3.165   2.714   1.724  2.3553 -0.3250  0.4954
 1767TIP3    H221874   3.133   2.858   1.689 -2.8463 -1.0971  1.3630
 1768TIP3   OH221875   2.293   0.202   1.085  0.2306  0.0017  0.1020
 1768TIP3    H121876   2.230   0.130   1.093  0.1731  0.0364 -0.0347
 1768TIP3    H221877   2.239   0.281   1.089  0.4286  0.0730  1.5857
 1769TIP3   OH221878   3.636   5.121   8.728  0.5834  0.0381 -0.1287
 1769TIP3    H121879   3.544   5.113   8.752  0.4583 -0.1649 -0.6570
 1769TIP3    H221880   3.664   5.203   8.769  0.4394 -0.4040  0.8614
 1770TIP3   OH221881   6.020   2.056   2.405  0.1477 -0.0804  0.0849
 1770TIP3    H121882   5.943   2.108   2.383  0.9330  0.9924 -0.2040
 1770TIP3    H221883   6.060   2.103   2.478  1.6597  0.5546 -1.0990
 1771TIP3   OH221884   6.363   1.326   0.691  0.6356  0.0397 -0.1345
 1771TIP3    H121885   6.422   1.275   0.747 -0.8787 -0.1340  1.4085
 1771TIP3    H221886   6.415   1.401   0.663  2.8594 -2.1090 -2.2530
 1772TIP3   OH221887   0.276   5.669   1.056 -0.5975  0.0406 -0.0414
 1772TIP3    H121888   0.278   5.654   1.151  1.6947 -0.9210 -0.1583
 1772TIP3    H221889   0.218   5.743   1.044 -0.1383  0.8443  2.2422
 1773TIP3   OH221890   3.779   5.622   9.231  0.3022  0.0398 -0.1091
 1773TIP3    H121891   3.694   5.584   9.253  0.3431 -0.1189 -0.2217
 1773TIP3    H221892   3.814   5.564   9.162  0.2031  0.4918 -0.5429
 1774TIP3   OH221893   3.236   3.538   9.171  0.2038  0.3038  0.3541
 1774TIP3    H121894   3.184   3.520   9.250 -0.0800 -1.4302 -0.2005
 1774TIP3    H221895   3.196   3.617   9.135  0.4655  1.2570  2.0267
 1775TIP3   OH221896   1.317   0.498   6.810 -0.5976  0.0561 -0.2727
 1775TIP3    H121897   1.322   0.571   6.871  2.0749  0.3351 -0.6878
 1775TIP3    H221898   1.369   0.428   6.851 -0.8949 -0.6472 -1.0652
 1776TIP3   OH221899   3.575   5.845   8.051  0.1493 -0.1329  0.5326
 1776TIP3    H121900   3.528   5.775   8.096 -2.4813  1.4866  0.4792
 1776TIP3    H221901   3.603   5.807   7.968  0.4983 -1.6429  1.3147
 1777TIP3   OH221902   0.389   1.576   9.261 -0.0130 -0.1679  0.2604
 1777TIP3    H121903   0.427   1.498   9.222 -0.7932 -0.5815  0.3080
 1777TIP3    H221904   0.448   1.597   9.334  0.3009 -0.6039  0.1363
 1778TIP3   OH221905   1.592   1.776   1.182 -0.5188 -0.0279  0.4565
 1778TIP3    H121906   1.682   1.803   1.160 -1.0739  1.1356 -0.5113
 1778TIP3    H221907   1.590   1.682   1.163 -0.0655  0.3215 -1.5757
 1779TIP3   OH221908   0.872   1.642   0.355 -0.0227  0.7623 -0.0058
 1779TIP3    H121909   0.907   1.683   0.434 -0.4159 -1.2802  1.3105
 1779TIP3    H221910   0.777   1.647   0.365 -0.0766  0.6206 -0.4143
 1780TIP3   OH221911   4.827   5.511   7.108  0.1939 -0.1810  0.0401
 1780TIP3    H121912   4.816   5.581   7.044 -0.0305  0.8040  1.1120
 1780TIP3    H221913   4.921   5.501   7.119  0.2274  0.5626  0.4991
 1781TIP3   OH221914   6.051   1.677   2.244  0.1764  0.1356 -0.5426
 1781TIP3    H121915   6.125   1.694   2.302 -0.8809 -0.6223  1.1002
 1781TIP3    H221916   6.000   1.757   2.245  0.4558  0.3202 -0.8932
 1782TIP3   OH221917   5.180   5.257   3.070  0.2224 -0.1317  0.4900
 1782TIP3    H121918   5.209   5.198   2.999  1.8202  0.6003  0.4987
 1782TIP3    H221919   5.181   5.344   3.031  0.5080  0.2078  1.2437
 1783TIP3   OH221920   1.168   5.776   1.001 -0.3484  0.4327  0.1613
 1783TIP3    H121921   1.077   5.804   0.991  0.2535  1.8055 -2.4693
 1783TIP3    H221922   1.197   5.757   0.912  1.4042 -1.9436  1.1378
 1784TIP3   OH221923   5.508   5.484   8.263 -0.0424 -0.2470 -0.3318
 1784TIP3    H121924   5.577   5.421   8.277 -0.2004 -1.3650 -3.7853
 1784TIP3    H221925   5.436   5.434   8.224 -0.8503  1.7090 -1.5335
 1785TIP3   OH221926   4.058   1.798   7.981  0.0508 -0.1932  0.8729
 1785TIP3    H121927   3.965   1.789   7.958  0.2100 -2.4952  0.8456
 1785TIP3    H221928   4.058   1.816   8.075 -0.4322  2.1952  0.4685
 1786TIP3   OH221929   2.259   6.059   6.951 -0.2974 -0.5022  0.0771
 1786TIP3    H121930   2.269   5.974   6.908 -0.5516 -1.0202  1.0250
 1786TIP3    H221931   2.306   6.120   6.894  0.5644 -1.4030 -0.2033
 1787TIP3   OH221932   4.122   0.788   9.370  0.0209  0.1460 -0.0742
 1787TIP3    H121933   4.132   0.859   9.307  0.6812 -0.2003 -0.3640
 1787TIP3    H221934   4.121   0.709   9.317  0.7547 -0.1618  0.3633
 1788TIP3   OH221935   5.938   0.628   9.281 -0.1980  1.3635  0.1734
 1788TIP3    H121936   5.848   0.596   9.277  0.3760 -0.2237 -0.7548
 1788TIP3    H221937   5.981   0.569   9.344  0.2296  2.0430  0.5270
 1789TIP3   OH221938   4.475   6.343   9.152  0.1866 -0.1835  0.8527
 1789TIP3    H121939   4.522   6.400   9.213 -0.1822  1.8603 -0.6600
 1789TIP3    H221940   4.529   6.344   9.072 -0.4372 -0.9945  0.4105
 1790TIP3   OH221941   3.584   1.912   6.865 -0.0136  0.0176 -0.3883
 1790TIP3    H121942   3.640   1.896   6.941 -0.2700  0.1970 -0.1606
 1790TIP3    H221943   3.551   2.001   6.878  0.3339  0.2429 -0.9608
 1791TIP3   OH221944   0.978   4.919   1.569 -0.1644  0.2430 -0.0662
 1791TIP3    H121945   0.997   4.940   1.660 -1.6844  2.8524 -0.2408
 1791TIP3    H221946   0.891   4.878   1.572 -0.7182  1.3453 -0.3777
 1792TIP3   OH221947   1.928   5.554   0.159 -0.3318  0.5522 -0.0265
 1792TIP3    H121948   1.893   5.521   0.242 -2.0254  2.1216 -0.0415
 1792TIP3    H221949   1.925   5.478   0.100  1.8346 -0.8588  1.5422
 1793TIP3   OH221950   1.202  -0.018   2.321 -0.5922 -0.4332 -0.0397
 1793TIP3    H121951   1.139   0.032   2.269 -1.5678 -1.8222 -0.2550
 1793TIP3    H221952   1.199   0.022   2.408 -1.2699 -0.0542 -0.2315
 1794TIP3   OH221953   5.755   2.819   8.428 -0.5235 -0.0075  0.1766
 1794TIP3    H121954   5.692   2.799   8.497 -0.1038 -0.1190  0.5371
 1794TIP3    H221955   5.832   2.766   8.450 -0.5745 -0.4665 -0.6806
 1795TIP3   OH221956   6.312   4.448   1.304 -0.1634 -0.1845  0.1051
 1795TIP3    H121957   6.353   4.369   1.339 -0.4124  0.5771  2.3049
 1795TIP3    H221958   6.358   4.466   1.222 -1.0359 -3.3630 -1.2301
 1796TIP3   OH221959   4.117   1.645   1.005  0.3942 -0.1070 -0.0202
 1796TIP3    H121960   4.136   1.554   1.028  0.0128  0.1094  1.2051
 1796TIP3    H221961   4.024   1.657   1.026  0.0239  0.1430 -1.6327
 1797TIP3   OH221962   0.683   0.587   1.899 -0.1705 -0.3652 -0.1597
 1797TIP3    H121963   0.765   0.542   1.919  0.1596  0.4362  0.3904
 1797TIP3    H221964   0.673   0.580   1.804  1.2562  0.6732 -0.4275
 1798TIP3   OH221965   5.770   0.685   0.661 -0.2867  0.2842  0.3448
 1798TIP3    H121966   5.818   0.768   0.654 -0.9459  0.6833  0.4266
 1798TIP3    H221967   5.726   0.690   0.746 -0.5937 -0.0030  0.2046
 1799TIP3   OH221968   2.100   1.297   1.229 -0.5479 -0.7375  0.2723
 1799TIP3    H121969   2.102   1.354   1.152 -1.3121 -0.1815  0.6472
 1799TIP3    H221970   2.019   1.321   1.275  0.8692  0.3538  2.3259
 1800TIP3   OH221971   2.419   1.860   8.453 -0.5409 -0.4338  0.6404
 1800TIP3    H121972   2.504   1.898   8.431 -1.4371  2.4936  1.7692
 1800TIP3    H221973   2.357   1.904   8.396 -1.6348 -0.2735  1.9009
 1801TIP3   OH221974   1.576   5.058   1.682  0.1801 -0.3690  0.2835
 1801TIP3    H121975   1.641   5.041   1.614 -0.5269  0.3246 -0.5803
 1801TIP3    H221976   1.627   5.083   1.759  0.9460 -0.0689 -0.3160
 1802TIP3   OH221977   5.667   1.065   7.687  0.4152  0.1975 -0.3863
 1802TIP3    H121978   5.728   1.130   7.722  0.6726  0.5648 -1.4823
 1802TIP3    H221979   5.584   1.084   7.729  0.2871  1.7737 -1.2931
 1803TIP3   OH221980   1.584   5.824   1.706  0.1948 -0.2189  0.5004
 1803TIP3    H121981   1.557   5.787   1.623 -0.8921  1.2701  0.1381
 1803TIP3    H221982   1.679   5.815   1.707  0.3956  1.0813 -1.5971
 1804TIP3   OH221983   1.321   2.764   1.605 -0.1315  0.0224 -0.3232
 1804TIP3    H121984   1.252   2.698   1.614  1.2203 -1.2692  1.3393
 1804TIP3    H221985   1.395   2.728   1.655  0.9992  2.3600 -0.1848
 1805TIP3   OH221986   3.751   0.423   8.146  0.6006 -0.0593  0.0083
 1805TIP3    H121987   3.686   0.410   8.215  1.5196  1.4105  1.2017
 1805TIP3    H221988   3.737   0.513   8.117  0.9737 -0.3031 -0.9557
 1806TIP3   OH221989   2.315   5.822   8.608  0.3944  0.0973 -0.4225
 1806TIP3    H121990   2.251   5.875   8.561  1.5075  1.6182 -0.2810
 1806TIP3    H221991   2.377   5.794   8.540 -1.9529 -4.0557 -1.2137
 1807TIP3   OH221992   2.890   5.895   2.207  0.2071  0.2600  0.7321
 1807TIP3    H121993   2.944   5.865   2.280  0.9653  2.1681  1.0202
 1807TIP3    H221994   2.841   5.969   2.243 -0.9493 -0.0444 -0.1556
 1808TIP3   OH221995   5.337   1.208   9.319 -0.0487 -0.7568  0.2180
 1808TIP3    H121996   5.287   1.288   9.337  1.5707  0.5800 -0.9087
 1808TIP3    H221997   5.415   1.216   9.374  0.8862 -0.7416 -1.0591
 1809TIP3   OH221998   1.056   1.171   2.304 -0.4398 -0.0344  0.3914
 1809TIP3    H121999   0.970   1.148   2.338 -0.2694 -0.2543  0.6805
 1809TIP3    H222000   1.113   1.098   2.330 -0.3343 -0.2724 -0.4913
 1810TIP3   OH222001   4.164   4.578   0.227  0.2680 -0.5199  0.1098
 1810TIP3    H122002   4.176   4.662   0.271  1.8415 -0.8918  0.4525
 1810TIP3    H222003   4.228   4.579   0.155 -1.2388 -0.5316 -1.2969
 1811TIP3   OH222004   2.015   1.407   8.833 -0.3033  0.3258  0.1705
 1811TIP3    H122005   2.070   1.485   8.832 -0.0162  0.1405  0.8337
 1811TIP3    H222006   2.053   1.351   8.901  0.8639 -1.4038 -1.8050
 1812TIP3   OH222007   2.069   5.975   3.478 -0.6638 -0.3304  0.1083
 1812TIP3    H122008   2.028   6.061   3.486  0.0536  0.0089  0.1759
 1812TIP3    H222009   2.121   5.966   3.558 -1.0544 -0.9975  0.2926
 1813TIP3   OH222010   6.361   6.213   9.027 -0.1646  0.5918  0.0520
 1813TIP3    H122011   6.344   6.229   8.934 -0.7260 -0.5249 -0.0545
 1813TIP3    H222012   6.403   6.127   9.029  2.7368  1.9103  0.5875
 1814TIP3   OH222013   1.268   0.997   8.264 -0.0125 -0.3883  0.0641
 1814TIP3    H122014   1.205   0.994   8.192  0.5433 -0.1682 -0.4451
 1814TIP3    H222015   1.231   0.939   8.331 -1.3925  0.7550  0.3290
 1815TIP3   OH222016   0.547   3.646   2.954  0.0202  0.0563 -0.5495
 1815TIP3    H122017   0.512   3.643   2.865  0.7091  1.5259 -0.9131
 1815TIP3    H222018   0.579   3.736   2.963  3.2943 -1.0080 -0.1234
 1816TIP3   OH222019   5.108   5.611   0.208  0.4298  0.0093  0.0749
 1816TIP3    H122020   5.127   5.519   0.189  0.3695 -0.1745  0.8619
 1816TIP3    H222021   5.190   5.657   0.190  0.0398  0.0472 -1.7788
 1817TIP3   OH222022   3.002   6.196   2.472 -0.6111  0.3134  0.3693
 1817TIP3    H122023   3.075   6.256   2.458  1.3262 -1.9874  0.0159
 1817TIP3    H222024   3.037   6.127   2.529 -1.6129 -2.2963 -1.9549
 1818TIP3   OH222025   2.755   3.860   8.285 -0.1747 -0.7163  0.0180
 1818TIP3    H122026   2.663   3.886   8.295 -0.2114 -0.1533 -1.5940
 1818TIP3    H222027   2.799   3.938   8.251  0.2015 -1.9571 -2.6119
 1819TIP3   OH222028   5.846   4.107   2.732  0.3394  0.6594 -0.5511
 1819TIP3    H122029   5.822   4.196   2.705 -1.2999  1.1704  2.2272
 1819TIP3    H222030   5.828   4.105   2.825  2.4065 -1.9820 -0.0922
 1820TIP3   OH222031   4.582   3.640   0.841 -0.0019 -0.0543 -0.4095
 1820TIP3    H122032   4.544   3.631   0.928  1.9675  1.2886  0.6587
 1820TIP3    H222033   4.621   3.555   0.823  0.4586 -0.0488  0.4938
 1821TIP3   OH222034   4.057   1.251   2.912 -0.1215  0.2711  0.0460
 1821TIP3    H122035   4.132   1.305   2.937 -0.4115  0.1504  1.2493
 1821TIP3    H222036   4.096   1.169   2.881  0.2649 -0.5982  2.5805
 1822TIP3   OH222037   5.644   1.638   6.478 -0.2620  0.2813 -0.2123
 1822TIP3    H122038   5.676   1.611   6.392  1.7667 -0.5453  0.7339
 1822TIP3    H222039   5.616   1.729   6.466  0.2929  0.2949 -1.6436
 1823TIP3   OH222040   6.246   0.806   8.769 -0.3427  0.0328  0.0506
 1823TIP3    H122041   6.340   0.820   8.776 -0.3999  0.6409 -0.3073
 1823TIP3    H222042   6.218   0.863   8.696 -0.7145 -1.4292 -1.0062
 1824TIP3   OH222043   0.652   3.796   0.564  0.1138 -0.3188 -0.4017
 1824TIP3    H122044   0.747   3.805   0.559  0.2563 -1.1621  0.5272
 1824TIP3    H222045   0.638   3.705   0.591 -0.8414  0.7755  3.2382
 1825TIP3   OH222046   2.320   1.955   6.921 -0.0261 -0.5215  0.0010
 1825TIP3    H122047   2.309   1.884   6.857  1.0232 -1.2888  0.6209
 1825TIP3    H222048   2.408   1.940   6.956 -0.3190  0.3050  1.1115
 1826TIP3   OH222049   1.141   0.864   8.513 -0.0807  0.5015 -0.2565
 1826TIP3    H122050   1.059   0.826   8.479 -0.0236  0.3321 -0.2052
 1826TIP3    H222051   1.114   0.945   8.555  0.0404  1.6428 -2.2302
 1827TIP3   OH222052   1.201   3.489   7.832  0.5269  0.7920 -0.4557
 1827TIP3    H122053   1.115   3.458   7.860  0.6440 -0.1132 -1.0861
 1827TIP3    H222054   1.248   3.411   7.805  2.5317  0.8505  2.3355
 1828TIP3   OH222055   3.888   1.364   6.769 -0.1007 -0.0251 -0.3075
 1828TIP3    H122056   3.860   1.393   6.682 -0.7160  1.2278  0.2874
 1828TIP3    H222057   3.808   1.330   6.809 -0.3573  1.6123  0.6269
 1829TIP3   OH222058   2.437   1.133   9.344 -0.2004 -0.2397 -0.5790
 1829TIP3    H122059   2.375   1.146   9.272 -1.5977 -1.3567  0.3715
 1829TIP3    H222060   2.383   1.130   9.423  0.8968 -2.2795  0.1825
 1830TIP3   OH222061   0.316   4.635   8.739 -0.1980  0.3707  0.1645
 1830TIP3    H122062   0.254   4.631   8.812  0.0708  0.7786  0.4222
 1830TIP3    H222063   0.290   4.563   8.681 -0.2060 -0.1626  0.8219
 1831TIP3   OH222064   6.144   2.859   0.476 -0.0921 -0.2369  0.9127
 1831TIP3    H122065   6.103   2.910   0.407  1.0419  0.5174  0.7627
 1831TIP3    H222066   6.156   2.922   0.548 -1.1869 -0.9876  1.7863
 1832TIP3   OH222067   1.085   0.493   1.278 -0.2609  0.2401  0.1832
 1832TIP3    H122068   1.061   0.518   1.189  0.3086 -0.4020 -0.1526
 1832TIP3    H222069   1.052   0.565   1.332  0.5490  1.2854 -0.6743
 1833TIP3   OH222070   0.988   5.006   6.995  0.0728  0.0097 -0.3542
 1833TIP3    H122071   0.960   5.020   7.085  0.7294  0.9520 -0.2851
 1833TIP3    H222072   0.963   5.085   6.949  2.7894  1.0745 -0.2184
 1834TIP3   OH222073   2.724   0.641   8.780 -0.6799 -0.3794  0.2559
 1834TIP3    H122074   2.749   0.618   8.869 -0.0914  0.1222  0.2272
 1834TIP3    H222075   2.756   0.568   8.727 -2.3477 -1.4195  0.6017
 1835TIP3   OH222076   4.774   0.534   8.957 -0.0344  0.5573  0.5605
 1835TIP3    H122077   4.706   0.554   9.023 -0.5623 -0.5255  0.3740
 1835TIP3    H222078   4.739   0.570   8.876 -0.0544  0.6348  0.6028
 1836TIP3   OH222079   1.370   5.523   6.358  0.2008 -0.1898  0.1455
 1836TIP3    H122080   1.432   5.596   6.358  0.2428 -0.1846 -1.5002
 1836TIP3    H222081   1.418   5.451   6.316 -0.7692 -0.3007 -0.7939
 1837TIP3   OH222082   2.324   4.915   2.244  0.1215  0.7938  0.3076
 1837TIP3    H122083   2.355   4.987   2.189  0.3183  0.2601 -0.2917
 1837TIP3    H222084   2.396   4.851   2.242 -0.2910  0.3255  0.3652
 1838TIP3   OH222085   3.760   0.945   8.430 -0.1923  0.1759  0.3709
 1838TIP3    H122086   3.728   1.023   8.384  1.8415  0.6232 -0.3669
 1838TIP3    H222087   3.681   0.905   8.466 -1.5347  1.3970 -1.0660
 1839TIP3   OH222088   3.650   1.533   8.922 -1.0421  0.2577 -0.4031
 1839TIP3    H122089   3.579   1.565   8.868 -1.1247 -0.3761 -0.6798
 1839TIP3    H222090   3.607   1.482   8.991 -0.8313 -1.0063 -1.1664
 1840TIP3   OH222091   3.783   4.487   0.434 -0.4745  0.2620  0.0117
 1840TIP3    H122092   3.781   4.581   0.417 -2.2023  0.2787  0.1857
 1840TIP3    H222093   3.760   4.446   0.351  0.4903 -0.0368 -0.1239
 1841TIP3   OH222094   0.169   4.013   1.737 -0.6735  0.6366  0.1389
 1841TIP3    H122095   0.180   4.029   1.643 -0.6344 -1.2537 -0.2226
 1841TIP3    H222096   0.157   3.918   1.744  0.3890  0.5900  2.1502
 1842TIP3   OH222097   2.397   4.002   0.586  0.1874  0.2899 -0.4654
 1842TIP3    H122098   2.303   4.016   0.574 -0.0966 -1.0749  0.0538
 1842TIP3    H222099   2.431   4.001   0.496 -0.4316 -0.1047 -0.7078
 1843TIP3   OH222100   3.682   1.407   9.294  0.1419  0.2119  0.4851
 1843TIP3    H122101   3.659   1.318   9.320  0.0228  0.5024  1.4201
 1843TIP3    H222102   3.776   1.414   9.313  0.5947 -0.3075 -1.3791
 1844TIP3   OH222103   6.420   3.735   6.504  0.0632  0.0090 -0.0611
 1844TIP3    H122104   6.470   3.810   6.474  0.0860 -0.8099 -2.2739
 1844TIP3    H222105   6.352   3.723   6.437  0.2514 -2.1034  0.0567
 1845TIP3   OH222106   3.711   6.376   9.289  0.0390 -0.4638  0.6205
 1845TIP3    H122107   3.696   6.395   9.382 -0.4299  0.0103  0.4491
 1845TIP3    H222108   3.748   6.457   9.254  0.2706 -0.6618  0.4041
 1846TIP3   OH222109   1.505   4.700   8.604 -0.7003  0.7393 -0.2473
 1846TIP3    H122110   1.428   4.643   8.605 -0.2797  0.1301  1.4886
 1846TIP3    H222111   1.510   4.734   8.693 -0.9766  3.6035 -1.2340
 1847TIP3   OH222112   3.290   4.402   0.741 -0.7370  0.5449  0.1086
 1847TIP3    H122113   3.266   4.353   0.663 -2.2739  0.5533  0.5305
 1847TIP3    H222114   3.220   4.466   0.751  0.3384  1.6921  0.5343
 1848TIP3   OH222115   2.206   5.823   0.257  0.0619 -0.1414 -0.0814
 1848TIP3    H122116   2.247   5.738   0.239  1.0242  0.2913  0.0054
 1848TIP3    H222117   2.277   5.876   0.295 -0.5246  0.7060 -0.1547
 1849TIP3   OH222118   1.920   6.268   0.845  0.0604  0.2331 -0.0290
 1849TIP3    H122119   1.885   6.216   0.917  3.5389  0.3812  2.0088
 1849TIP3    H222120   1.896   6.219   0.766 -0.1778 -2.3474  1.5336
 1850TIP3   OH222121   0.102   4.375   2.513 -0.1203 -0.3564  0.1234
 1850TIP3    H122122   0.179   4.365   2.457  1.8459  0.0452  2.5615
 1850TIP3    H222123   0.126   4.332   2.595 -2.0987  0.7162  1.3546
 1851TIP3   OH222124   4.248   5.698   1.645 -0.4310  0.0035  0.7741
 1851TIP3    H122125   4.244   5.624   1.706 -3.1599  0.3050  1.0428
 1851TIP3    H222126   4.235   5.775   1.699 -3.1998  0.2580 -0.1232
 1852TIP3   OH222127   3.858   2.392   0.913  0.0607 -0.5229 -0.7352
 1852TIP3    H122128   3.952   2.392   0.930 -0.0610 -1.3593  0.0343
 1852TIP3    H222129   3.845   2.459   0.846  1.4394 -1.5015 -2.0729
 1853TIP3   OH222130   5.882   3.649   1.740 -0.1042 -0.3082 -0.0519
 1853TIP3    H122131   5.900   3.742   1.749  1.2354 -0.4658 -0.7932
 1853TIP3    H222132   5.841   3.640   1.654 -0.8960 -0.3324  0.3183
 1854TIP3   OH222133   1.065   5.475   7.393 -0.7520 -0.2921 -0.2158
 1854TIP3    H122134   1.142   5.521   7.428  0.6880 -2.2896 -0.5742
 1854TIP3    H222135   0.991   5.530   7.420  0.7646  1.7964  0.0423
 1855TIP3   OH222136   3.322   5.199   7.132  1.2216 -0.4433 -0.0354
 1855TIP3    H122137   3.226   5.206   7.130  1.0415 -2.4474 -1.5956
 1855TIP3    H222138   3.352   5.290   7.136 -0.7493  0.4751 -2.6799
 1856TIP3   OH222139   5.622   1.993   2.051 -0.3219  0.6148  0.6737
 1856TIP3    H122140   5.647   1.973   1.961  1.1409  1.6080  0.8214
 1856TIP3    H222141   5.526   1.985   2.052 -0.2364 -0.9433 -0.5593
 1857TIP3   OH222142   6.060   2.535   6.334 -0.1188  0.0144 -0.5837
 1857TIP3    H122143   6.120   2.469   6.298 -0.5416 -0.8270  0.2118
 1857TIP3    H222144   5.990   2.541   6.270 -0.0268 -0.2327 -0.7110
 1858TIP3   OH222145   5.061   2.127   8.883  0.1333 -1.0584 -0.1430
 1858TIP3    H122146   5.048   2.039   8.918 -0.2946 -0.5657  1.0017
 1858TIP3    H222147   5.097   2.177   8.957 -1.3377  0.1698 -0.2171
 1859TIP3   OH222148   1.548   4.058   3.033 -0.0225  0.0204  0.1139
 1859TIP3    H122149   1.472   4.026   2.985 -0.6740 -0.3409  1.3297
 1859TIP3    H222150   1.560   4.148   3.002 -0.6412 -0.0889 -0.4593
 1860TIP3   OH222151   4.356   4.015   2.640  0.0590 -0.3901  0.0838
 1860TIP3    H122152   4.406   4.080   2.591 -1.3350  0.7007  0.0503
 1860TIP3    H222153   4.388   4.021   2.730  1.9633 -1.7363 -0.4371
 1861TIP3   OH222154   3.656   2.868   8.505 -0.7520 -0.2508  0.3737
 1861TIP3    H122155   3.733   2.830   8.463 -1.1548  0.4443 -1.0612
 1861TIP3    H222156   3.667   2.962   8.495 -1.2201 -0.0934  1.2276
 1862TIP3   OH222157   0.724   5.571   0.744 -0.1236 -0.2152  0.8357
 1862TIP3    H122158   0.637   5.551   0.777 -0.6253 -0.1403 -0.3909
 1862TIP3    H222159   0.723   5.541   0.653  1.6725 -1.7288  1.2548
 1863TIP3   OH222160   0.741   3.735   7.256  0.3597  0.3261 -0.0132
 1863TIP3    H122161   0.692   3.811   7.225  0.9990  1.6969  2.0719
 1863TIP3    H222162   0.700   3.713   7.340 -0.5431 -2.4329 -1.0538
 1864TIP3   OH222163   0.682   5.739   7.265 -0.4208 -0.8765 -0.1748
 1864TIP3    H122164   0.735   5.810   7.230  0.8344 -0.5350  2.2063
 1864TIP3    H222165   0.596   5.777   7.278 -0.3897 -0.4800 -1.0695
 1865TIP3   OH222166   5.267   5.704   0.870 -0.7520  0.1357 -0.0696
 1865TIP3    H122167   5.311   5.667   0.946 -1.0954  0.3598  0.2423
 1865TIP3    H222168   5.289   5.645   0.798 -1.5386 -0.8565  0.4695
 1866TIP3   OH222169   3.790   2.959   2.605 -0.9429 -0.1150 -0.1628
 1866TIP3    H122170   3.714   2.911   2.637 -0.5340 -1.0039 -0.4853
 1866TIP3    H222171   3.848   2.966   2.680 -0.9046 -0.3223 -0.1738
 1867TIP3   OH222172   3.788   5.073   8.494  0.5503 -0.6904  0.6453
 1867TIP3    H122173   3.739   5.010   8.441  1.4895 -0.9144  0.0253
 1867TIP3    H222174   3.744   5.072   8.579 -0.8143 -0.5261 -0.0347
 1868TIP3   OH222175   5.133   0.606   8.770  0.2759 -0.5526 -0.0376
 1868TIP3    H122176   5.067   0.658   8.816  1.7546  0.5731  0.9495
 1868TIP3    H222177   5.142   0.526   8.821  1.6810  0.5530  1.5894
 1869TIP3   OH222178   4.280   3.094   1.240  0.1576  0.0557  0.4391
 1869TIP3    H122179   4.276   3.098   1.336 -0.7460  0.5440  0.3847
 1869TIP3    H222180   4.193   3.119   1.211  0.9318  1.7072 -0.5761
 1870TIP3   OH222181   5.754   2.906   0.942 -0.8936  0.5770  0.5011
 1870TIP3    H122182   5.678   2.848   0.938  0.0168 -0.7764  1.7580
 1870TIP3    H222183   5.721   2.988   0.978 -2.1635  0.8279 -1.1045
 1871TIP3   OH222184   2.952   2.739   8.955  0.3528  0.5581 -0.1647
 1871TIP3    H122185   2.928   2.721   9.046  0.9727  2.2014  0.3584
 1871TIP3    H222186   2.879   2.703   8.903 -0.9623  1.3117  1.0948
 1872TIP3   OH222187   1.219   4.038   0.092 -0.2818  0.2046 -0.1435
 1872TIP3    H122188   1.268   3.957   0.102 -0.2858  0.3569  1.2907
 1872TIP3    H222189   1.148   4.015   0.032 -0.7747 -1.0999  0.8808
 1873TIP3   OH222190   0.077   2.964   6.536 -0.0230 -0.1510  0.2151
 1873TIP3    H122191  -0.014   2.939   6.552 -0.3214  0.8880  0.2239
 1873TIP3    H222192   0.090   2.947   6.443 -0.0180 -0.9201  0.3519
 1874TIP3   OH222193   3.664   5.398   0.519 -0.2772  0.3675  0.1992
 1874TIP3    H122194   3.747   5.381   0.565  0.2252  1.5207 -0.2494
 1874TIP3    H222195   3.686   5.463   0.453 -1.7159  1.3074  0.5971
 1875TIP3   OH222196   1.143   2.910   0.512  0.4858 -0.3842  0.0759
 1875TIP3    H122197   1.076   2.862   0.463 -0.4157  0.0926  0.8362
 1875TIP3    H222198   1.156   2.859   0.592  0.1688  0.1487  0.4732
 1876TIP3   OH222199   5.846   3.590   8.967 -0.0152  0.2669  0.6983
 1876TIP3    H122200   5.922   3.647   8.979 -0.4892  0.8336  1.0251
 1876TIP3    H222201   5.863   3.516   9.025  1.3052 -0.6704 -0.7901
 1877TIP3   OH222202   4.277   1.534   7.105  0.6007  0.0500  0.1677
 1877TIP3    H122203   4.334   1.492   7.169  0.8881  0.4572  0.1814
 1877TIP3    H222204   4.332   1.599   7.062 -0.2903  1.7772  1.4785
 1878TIP3   OH222205   4.643   4.520   2.501  0.1464 -0.0546 -0.2096
 1878TIP3    H122206   4.721   4.505   2.447  0.5614  0.1487  0.3204
 1878TIP3    H222207   4.677   4.531   2.590 -0.5761 -1.0083  0.2046
 1879TIP3   OH222208   3.606   1.665   0.248  0.1454 -0.2205 -0.0080
 1879TIP3    H122209   3.689   1.618   0.261 -0.1525 -0.8060 -0.2035
 1879TIP3    H222210   3.621   1.718   0.169 -0.1239 -1.3883 -0.8642
 1880TIP3   OH222211   0.567   6.433   1.510 -0.2582 -0.5619 -0.4855
 1880TIP3    H122212   0.573   6.405   1.418 -4.0957  0.5028 -1.2433
 1880TIP3    H222213   0.639   6.387   1.553  0.4689 -2.7494 -3.6265
 1881TIP3   OH222214   4.061   4.818   9.375 -0.1433 -0.0761  0.5039
 1881TIP3    H122215   4.010   4.845   9.451 -2.2041 -1.4663 -0.2730
 1881TIP3    H222216   4.028   4.730   9.354  0.5515  0.1297 -1.7793
 1882TIP3   OH222217   2.882   1.338   8.568 -0.1695 -0.0275  0.7166
 1882TIP3    H122218   2.808   1.327   8.508 -0.5769 -2.5502  1.5679
 1882TIP3    H222219   2.956   1.299   8.522  0.5236  1.8354  0.1718
 1883TIP3   OH222220   4.962   0.512   2.358  0.2473  0.4131  0.1829
 1883TIP3    H122221   4.881   0.504   2.307 -0.4228 -1.0046  1.3996
 1883TIP3    H222222   4.933   0.509   2.449  1.7249 -1.3132  0.6496
 1884TIP3   OH222223   5.226   5.068   0.043 -0.1061  0.1325  0.3697
 1884TIP3    H122224   5.181   5.147   0.011 -1.0397 -0.3919  0.3503
 1884TIP3    H222225   5.156   5.003   0.052  0.7097 -0.7937  0.0769
 1885TIP3   OH222226   4.028   4.414   8.440  0.2304  0.0130  0.3245
 1885TIP3    H122227   4.041   4.396   8.347  3.7621  0.6898  0.5623
 1885TIP3    H222228   4.040   4.329   8.483 -0.9309 -0.2093  0.2489
 1886TIP3   OH222229   4.547   2.327   6.916 -0.0725 -0.1102  0.2117
 1886TIP3    H122230   4.524   2.382   6.991  0.4796  1.0629 -0.4579
 1886TIP3    H222231   4.611   2.378   6.867  1.6380 -1.9966  0.3561
 1887TIP3   OH222232   3.340   5.783   7.226 -0.1796  0.4511  0.3316
 1887TIP3    H122233   3.299   5.705   7.190 -0.7645  1.1278 -0.4889
 1887TIP3    H222234   3.432   5.776   7.198 -0.0710 -0.2509  0.8137
 1888TIP3   OH222235   3.886   4.686   8.792  0.4771 -0.2430  0.0998
 1888TIP3    H122236   3.961   4.694   8.851  1.7676  1.0581 -1.5933
 1888TIP3    H222237   3.816   4.735   8.834  0.3051 -1.9624  2.0005
 1889TIP3   OH222238   3.219   1.157   6.871 -0.6659 -0.0820 -0.1515
 1889TIP3    H122239   3.309   1.132   6.851 -0.6470 -1.4465  1.4248
 1889TIP3    H222240   3.194   1.217   6.800  2.0140  1.6473  0.2600
 1890TIP3   OH222241   5.999   4.337   8.775  0.6475  0.6393 -0.4608
 1890TIP3    H122242   6.012   4.260   8.830  1.4919  1.7649  0.9969
 1890TIP3    H222243   6.060   4.402   8.810 -1.3001  2.5850 -0.4412
 1891TIP3   OH222244   1.590   1.981   2.289  0.1033  0.8950 -0.0442
 1891TIP3    H122245   1.684   1.975   2.273  0.0241 -1.0520  0.0385
 1891TIP3    H222246   1.582   2.004   2.381  0.5088 -0.5395  0.3609
 1892TIP3   OH222247   0.038   6.427   0.649 -0.5832 -0.0171  0.0613
 1892TIP3    H122248   0.103   6.424   0.720  1.3556 -2.1113 -1.6196
 1892TIP3    H222249  -0.019   6.352   0.666 -2.3391  1.4907  1.2162
 1893TIP3   OH222250   5.568   2.684   0.750 -0.1414 -0.0802 -0.5110
 1893TIP3    H122251   5.654   2.726   0.743 -0.9862  1.9100  0.2692
 1893TIP3    H222252   5.588   2.592   0.765  1.9503  0.6686  2.0806
 1894TIP3   OH222253   0.101   2.826   6.993  0.9671  0.0008 -0.7066
 1894TIP3    H122254   0.089   2.881   7.071  1.6990 -2.4363  1.2649
 1894TIP3    H222255   0.107   2.888   6.921  1.9223  2.5090  1.3700
 1895TIP3   OH222256   0.452   4.888   6.047 -0.3073 -0.1185  0.2738
 1895TIP3    H122257   0.511   4.830   6.094  0.1458 -2.1728 -2.5976
 1895TIP3    H222258   0.393   4.830   5.999 -0.4455  1.7601 -2.0374
 1896TIP3   OH222259   5.796   4.192   0.892  0.3859 -0.0997  0.3676
 1896TIP3    H122260   5.846   4.273   0.888  0.3073 -0.0457  0.5010
 1896TIP3    H222261   5.860   4.125   0.917  1.3101 -0.7742 -3.2560
 1897TIP3   OH222262   4.478   3.301   2.321 -0.2796 -0.1126  0.4154
 1897TIP3    H122263   4.437   3.350   2.393 -1.9931 -1.9199  0.7528
 1897TIP3    H222264   4.472   3.210   2.348  1.8053 -0.6462 -0.6980
 1898TIP3   OH222265   4.738   2.747   1.820 -0.4431  0.2519 -0.2684
 1898TIP3    H122266   4.823   2.722   1.783  0.6843  1.9760  0.9800
 1898TIP3    H222267   4.681   2.673   1.800  1.0567 -0.5197 -2.0700
 1899TIP3   OH222268   6.158   0.238   6.988  0.5904 -0.0482  0.1220
 1899TIP3    H122269   6.132   0.248   6.897  1.0516  1.2222  0.1094
 1899TIP3    H222270   6.193   0.149   6.993  0.1554 -0.2843 -0.8319
 1900TIP3   OH222271   0.420   4.845   7.969  0.0296  0.0803  0.3588
 1900TIP3    H122272   0.377   4.764   7.997 -0.3575 -0.1280 -0.7896
 1900TIP3    H222273   0.410   4.846   7.874 -1.8159  2.5150  0.4823
 1901TIP3   OH222274   1.606   5.655   2.729 -0.3669  0.7037 -0.2498
 1901TIP3    H122275   1.681   5.644   2.787 -1.4174  1.1584  1.2538
 1901TIP3    H222276   1.566   5.568   2.724  2.1963 -0.4927 -3.9910
 1902TIP3   OH222277   1.191   5.798   9.324  0.4238  0.1763  0.3984
 1902TIP3    H122278   1.199   5.709   9.290 -1.3510 -0.6361  1.9451
 1902TIP3    H222279   1.265   5.845   9.285  2.2874 -2.3136  0.6826
 1903TIP3   OH222280   0.701   5.474   6.827 -0.4185 -0.2315  0.5401
 1903TIP3    H122281   0.649   5.422   6.766  1.9948 -0.7067 -1.2745
 1903TIP3    H222282   0.645   5.485   6.904 -2.3298 -2.5210 -0.4136
 1904TIP3   OH222283   0.706   0.785   0.174 -0.1448  0.5689  0.2396
 1904TIP3    H122284   0.735   0.757   0.087  2.1783 -0.9910  1.3957
 1904TIP3    H222285   0.719   0.880   0.174 -0.2422  0.6080 -1.1046
 1905TIP3   OH222286   0.981   5.354   7.841 -0.1132  0.6126 -0.1000
 1905TIP3    H122287   0.960   5.415   7.911 -1.8097  0.4866 -0.4597
 1905TIP3    H222288   0.935   5.389   7.764  0.9929  0.2668 -0.9513
 1906TIP3   OH222289   4.198   3.702   8.028  0.2446  0.4606  0.6377
 1906TIP3    H122290   4.102   3.704   8.031  0.2014 -0.3686 -0.0032
 1906TIP3    H222291   4.224   3.786   8.067 -0.7621  1.2772 -0.3846
 1907TIP3   OH222292   6.087   0.443   2.242 -0.1701 -0.2160  0.0958
 1907TIP3    H122293   6.035   0.491   2.306  0.6884 -0.2176  0.8129
 1907TIP3    H222294   6.099   0.357   2.281 -0.3001 -0.4751 -0.4304
 1908TIP3   OH222295   3.547   0.055   8.083 -0.4707  0.3661 -0.0034
 1908TIP3    H122296   3.554  -0.027   8.035  2.9174 -0.3564  1.4651
 1908TIP3    H222297   3.583   0.121   8.023 -0.1154  0.1974  0.0251
 1909TIP3   OH222298   5.941   4.822   7.373  0.0674 -0.4274 -0.2821
 1909TIP3    H122299   6.015   4.846   7.429 -0.1611  0.2471 -0.2550
 1909TIP3    H222300   5.878   4.893   7.385  0.0550 -0.2222 -1.4750
 1910TIP3   OH222301   0.337   5.204   2.116  0.4564  0.3924  0.3393
 1910TIP3    H122302   0.424   5.220   2.080  0.6724  0.3817  0.8456
 1910TIP3    H222303   0.285   5.172   2.042  0.8076  0.6672 -0.0225
 1911TIP3   OH222304   5.167   3.398   1.302 -0.2707  0.4922  0.3770
 1911TIP3    H122305   5.071   3.396   1.298 -0.2717  1.6559 -0.9237
 1911TIP3    H222306   5.192   3.463   1.236  1.4563 -0.3511  0.1651
 1912TIP3   OH222307   5.729   2.508   8.116 -0.1612 -0.0337 -0.5040
 1912TIP3    H122308   5.690   2.533   8.032 -0.3293  0.6964 -0.2140
 1912TIP3    H222309   5.692   2.570   8.179 -1.3405 -1.6069  0.4270
 1913TIP3   OH222310   2.586   4.099   1.278  0.0059  0.2687 -0.2154
 1913TIP3    H122311   2.662   4.153   1.255 -0.7258  1.6911  0.5446
 1913TIP3    H222312   2.589   4.095   1.374  0.5340 -1.8347 -0.2668
 1914TIP3   OH222313   1.712   6.198   8.130 -0.1542 -0.4750  0.7708
 1914TIP3    H122314   1.689   6.285   8.162 -0.3089 -1.0330  2.2607
 1914TIP3    H222315   1.633   6.146   8.143 -0.9977 -0.2591 -2.6298
 1915TIP3   OH222316   3.986   4.810   7.420 -0.2408  0.1974 -0.5747
 1915TIP3    H122317   3.993   4.863   7.341  1.7429  0.8017 -0.0637
 1915TIP3    H222318   3.939   4.731   7.392  1.4026 -0.1382 -2.6873
 1916TIP3   OH222319   6.360   3.161   9.372  0.3314 -0.1291 -0.0468
 1916TIP3    H122320   6.400   3.243   9.402  0.2487  0.0822 -0.5153
 1916TIP3    H222321   6.267   3.173   9.387  0.3482 -0.2517  0.1568
 1917TIP3   OH222322   1.994   2.831   0.574  0.3364  0.1806  0.3000
 1917TIP3    H122323   2.064   2.872   0.626 -0.3372  1.1107  0.5067
 1917TIP3    H222324   1.950   2.773   0.636  1.0249 -0.5390  0.1238
 1918TIP3   OH222325   6.048   4.748   1.475 -0.3876  0.2604 -0.3799
 1918TIP3    H122326   6.007   4.834   1.477 -0.7178  0.1095 -0.4915
 1918TIP3    H222327   5.980   4.689   1.508  0.4565  0.2852  1.5236
 1919TIP3   OH222328   2.907   0.255   7.801  0.3383 -0.3050  0.1586
 1919TIP3    H122329   2.888   0.170   7.842 -0.0473  0.1971  1.0354
 1919TIP3    H222330   2.976   0.293   7.855 -0.4485  0.5386  0.5959
 1920TIP3   OH222331   0.493   4.053   1.810 -0.6978 -1.0056  0.0356
 1920TIP3    H122332   0.441   4.065   1.889 -0.8462 -2.7251  0.2395
 1920TIP3    H222333   0.429   4.040   1.740 -0.5698  0.5748 -0.4025
 1921TIP3   OH222334   2.027   0.606   0.248 -0.6616 -0.5101  0.6524
 1921TIP3    H122335   1.940   0.567   0.235  0.4229 -2.7584 -0.3395
 1921TIP3    H222336   2.042   0.658   0.169 -1.0996 -0.0950  0.8379
 1922TIP3   OH222337   1.203   5.806   7.816 -0.4398 -0.1705  0.5554
 1922TIP3    H122338   1.295   5.816   7.841 -0.7315 -0.3008  1.7660
 1922TIP3    H222339   1.166   5.894   7.824 -0.4929 -0.1787  0.3924
 1923TIP3   OH222340   1.379   0.662   7.280 -0.1726  0.4412  0.3008
 1923TIP3    H122341   1.442   0.599   7.316 -0.0327  0.1179 -0.4858
 1923TIP3    H222342   1.300   0.649   7.332  0.0819  0.1127  0.6145
 1924TIP3   OH222343   3.076   1.734   8.389 -0.4192 -0.3383  0.6370
 1924TIP3    H122344   3.113   1.787   8.459 -1.1475 -1.3575  1.8323
 1924TIP3    H222345   2.981   1.741   8.400 -0.5347 -1.6708  0.6884
 1925TIP3   OH222346   5.342   0.684   0.979  0.1755 -0.3398 -0.0758
 1925TIP3    H122347   5.269   0.630   1.008  0.3508 -1.0541 -0.9202
 1925TIP3    H222348   5.323   0.704   0.887  0.5889  0.2458 -0.0442
 1926TIP3   OH222349   5.086   2.658   0.229  0.1295 -0.4520 -0.9343
 1926TIP3    H122350   5.108   2.577   0.183  0.9239 -0.1441 -1.1096
 1926TIP3    H222351   4.990   2.663   0.224  0.0972 -1.2154 -1.1946
 1927TIP3   OH222352   5.360   4.195   1.229  0.4336 -0.1342 -0.4056
 1927TIP3    H122353   5.332   4.287   1.228  0.6854 -0.0559 -0.4675
 1927TIP3    H222354   5.393   4.181   1.318  0.7409 -0.0539 -0.5025
 1928TIP3   OH222355   4.632   1.122   9.300  0.0200  0.5225 -0.5780
 1928TIP3    H122356   4.591   1.088   9.380  1.3537  1.4391  0.5571
 1928TIP3    H222357   4.584   1.082   9.229 -2.6931  1.3606  0.6490
 1929TIP3   OH222358   6.072   5.609   0.838  0.2013 -0.1190 -0.8925
 1929TIP3    H122359   6.109   5.660   0.765 -1.5173  0.8459 -1.1484
 1929TIP3    H222360   6.068   5.520   0.804 -1.4857  0.4707 -2.4237
 1930TIP3   OH222361   3.983   5.086   1.780  0.4377 -0.4893 -0.6330
 1930TIP3    H122362   3.981   4.994   1.754  0.4786 -0.1872 -1.8013
 1930TIP3    H222363   3.977   5.133   1.697  0.2125  0.5620 -0.0333
 1931TIP3   OH222364   0.020   3.410   6.902  0.1214 -0.0225  0.5556
 1931TIP3    H122365   0.095   3.445   6.951  0.9392 -1.7118  0.5872
 1931TIP3    H222366  -0.004   3.480   6.842  2.1826  0.3207  0.0614
 1932TIP3   OH222367   0.148   3.432   7.989 -0.1682 -0.3222  0.2671
 1932TIP3    H122368   0.181   3.388   8.067  0.1144 -1.2944 -0.3751
 1932TIP3    H222369   0.108   3.512   8.021 -0.6784 -1.0429  1.4836
 1933TIP3   OH222370   3.032   5.156   7.977 -0.9280  0.4536  0.2135
 1933TIP3    H122371   3.102   5.192   8.032 -1.5316 -0.1801  1.4278
 1933TIP3    H222372   2.979   5.103   8.036 -1.5329 -0.3674 -1.0197
 1934TIP3   OH222373   6.187   1.190   8.035  0.3243 -0.1127  0.4875
 1934TIP3    H122374   6.174   1.219   7.945 -0.6037 -1.7771  0.0675
 1934TIP3    H222375   6.270   1.141   8.033  1.3018  1.4214  0.9734
 1935TIP3   OH222376   3.479   1.436   1.650  0.8193 -0.2260 -0.0872
 1935TIP3    H122377   3.560   1.433   1.701  0.5693  1.4713  0.4904
 1935TIP3    H222378   3.428   1.506   1.691 -0.4765 -0.5173 -1.1314
 1936TIP3   OH222379   2.947   3.545   9.007  0.1891 -0.1541  0.4734
 1936TIP3    H122380   2.961   3.470   9.065  1.0706 -0.7032 -0.4116
 1936TIP3    H222381   2.860   3.530   8.970 -0.2161 -0.0042  1.3467
 1937TIP3   OH222382   2.253   1.314   1.547  0.1351 -0.5284 -0.1002
 1937TIP3    H122383   2.198   1.392   1.539  0.7948 -0.0749 -0.3130
 1937TIP3    H222384   2.191   1.241   1.549 -0.4424 -0.1023 -1.2989
 1938TIP3   OH222385   5.651   5.910   7.664  0.2805  0.8405 -0.1466
 1938TIP3    H122386   5.711   5.837   7.683 -1.9530 -1.0904 -0.1650
 1938TIP3    H222387   5.630   5.900   7.572 -0.2812  1.3369 -0.0739
 1939TIP3   OH222388   4.185   4.266   8.206 -0.6555 -0.1189  0.0619
 1939TIP3    H122389   4.263   4.280   8.260 -1.0165  1.1193  0.2916
 1939TIP3    H222390   4.123   4.222   8.264 -1.4832  2.2744  1.0899
 1940TIP3   OH222391   0.592   2.547   1.194 -0.3340  0.2926 -0.7534
 1940TIP3    H122392   0.529   2.536   1.266  0.9160  0.6053  0.4319
 1940TIP3    H222393   0.606   2.459   1.160 -0.3804  0.0387 -0.1190
 1941TIP3   OH222394   1.600   5.617   0.992 -0.7079 -0.1876  0.2811
 1941TIP3    H122395   1.576   5.533   1.032 -0.1263 -0.4685  0.0526
 1941TIP3    H222396   1.559   5.682   1.048 -2.6456 -0.6460 -0.5139
 1942TIP3   OH222397   1.427   1.694   8.306  0.3609 -1.1503 -0.3603
 1942TIP3    H122398   1.521   1.710   8.305  0.2613 -0.5741 -0.6542
 1942TIP3    H222399   1.388   1.781   8.304 -0.1862 -1.4088 -1.0945
 1943TIP3   OH222400   0.592   5.320   0.300  0.3599  0.9867  0.0038
 1943TIP3    H122401   0.591   5.304   0.205 -0.3905 -0.4432  0.2207
 1943TIP3    H222402   0.630   5.240   0.337 -2.3577  0.0704  1.0889
 1944TIP3   OH222403   5.533   1.492   8.836  0.4887 -0.0937 -0.5875
 1944TIP3    H122404   5.512   1.484   8.929 -1.7293  0.4666 -0.9920
 1944TIP3    H222405   5.515   1.405   8.801 -0.7390  0.2516 -0.8449
 1945TIP3   OH222406   0.013   3.161   1.124 -0.7833 -0.4409 -0.1969
 1945TIP3    H122407   0.025   3.238   1.070 -2.0477  0.1199  0.2802
 1945TIP3    H222408   0.095   3.152   1.173 -0.3651  0.1704 -0.7788
 1946TIP3   OH222409   1.258   1.745   7.652  0.4183  0.3990 -0.1984
 1946TIP3    H122410   1.193   1.811   7.676  1.0007  0.8500  0.1702
 1946TIP3    H222411   1.209   1.680   7.601 -0.9601 -0.7841  2.4559
 1947TIP3   OH222412   5.551   5.855   6.885 -0.4800 -0.1109 -0.3216
 1947TIP3    H122413   5.486   5.907   6.838 -0.5495 -0.9918 -1.2260
 1947TIP3    H222414   5.565   5.778   6.830  1.6161  0.2292 -0.3407
 1948TIP3   OH222415   1.029   0.143   6.159  0.1369  0.5345 -0.3027
 1948TIP3    H122416   0.981   0.147   6.076  0.2375 -1.5097 -0.5180
 1948TIP3    H222417   0.965   0.171   6.224 -0.5706  0.2690 -0.8614
 1949TIP3   OH222418   2.460   3.353   8.742 -0.0826  0.6548  0.4537
 1949TIP3    H122419   2.535   3.297   8.722  0.2039  0.3267  2.2958
 1949TIP3    H222420   2.387   3.310   8.697  0.2941 -0.7178  1.1038
 1950TIP3   OH222421   1.900   4.207   9.325 -0.0696  0.6296 -0.1993
 1950TIP3    H122422   1.994   4.209   9.345  0.0009  0.6552 -0.5366
 1950TIP3    H222423   1.882   4.293   9.287 -0.2907  0.7340  0.1303
 1951TIP3   OH222424   4.094   4.858   2.991  0.1721 -0.2061 -0.0355
 1951TIP3    H122425   4.159   4.795   3.021  0.9188 -0.8949 -2.7499
 1951TIP3    H222426   4.056   4.817   2.912 -1.8550  1.2263  0.0994
 1952TIP3   OH222427   2.781   2.320   7.663  0.8102 -0.1940  0.1133
 1952TIP3    H122428   2.744   2.367   7.738  1.8910  1.3543 -0.2746
 1952TIP3    H222429   2.712   2.326   7.596  0.7551  0.4948  0.2169
 1953TIP3   OH222430   2.086   4.889   7.261  0.4238 -0.8081 -0.1860
 1953TIP3    H122431   2.115   4.837   7.186 -1.2747 -0.8069 -0.8783
 1953TIP3    H222432   2.027   4.832   7.309 -0.6041  0.0889 -0.3507
 1954TIP3   OH222433   4.384   0.392   7.346  0.1377  0.0594 -0.2840
 1954TIP3    H122434   4.377   0.484   7.372 -1.0862  0.5232 -2.0974
 1954TIP3    H222435   4.348   0.344   7.420 -2.5122  1.2808 -0.6747
 1955TIP3   OH222436   0.218   5.450   0.179  0.3537  0.5830  0.1709
 1955TIP3    H122437   0.133   5.411   0.198  1.5175 -1.6997  1.0923
 1955TIP3    H222438   0.232   5.433   0.086  0.2489 -0.0384  0.2614
 1956TIP3   OH222439   0.460   3.813   0.353 -0.1493  0.4880 -0.1514
 1956TIP3    H122440   0.395   3.883   0.350 -0.0027  0.6021 -0.8789
 1956TIP3    H222441   0.509   3.830   0.434 -0.8534  0.5497  0.2687
 1957TIP3   OH222442   1.128   4.228   2.015 -0.1948 -0.3425 -0.6160
 1957TIP3    H122443   1.176   4.146   2.004  1.3309  0.4791 -0.4676
 1957TIP3    H222444   1.089   4.222   2.102  0.4584 -0.6536 -0.3395
 1958TIP3   OH222445   1.450   4.817   2.743  0.4104  0.0839 -0.5440
 1958TIP3    H122446   1.413   4.769   2.669  1.5836 -1.9551  0.1272
 1958TIP3    H222447   1.435   4.762   2.819  0.7461  1.3473  0.4895
 1959TIP3   OH222448   3.089   0.810   2.246  0.2608  0.2193 -0.0051
 1959TIP3    H122449   3.014   0.777   2.295 -0.1551  0.6502 -0.3472
 1959TIP3    H222450   3.146   0.734   2.235 -0.6433 -0.3658 -0.7155
 1960TIP3   OH222451   3.785   2.572   1.862  0.1119 -0.0905 -0.2341
 1960TIP3    H122452   3.735   2.495   1.836  1.3263 -1.2022  0.5303
 1960TIP3    H222453   3.722   2.643   1.864 -1.5676 -1.5277  1.2155
 1961TIP3   OH222454   4.339   2.943   1.914 -0.1318  0.1705 -0.0907
 1961TIP3    H122455   4.385   2.922   1.833 -0.3367 -0.7453  0.0088
 1961TIP3    H222456   4.360   3.034   1.931  0.5188  0.1622 -0.7784
 1962TIP3   OH222457   1.865   0.496   5.793  0.0619  0.5482 -0.1184
 1962TIP3    H122458   1.784   0.531   5.829  0.8350  0.5465  1.7402
 1962TIP3    H222459   1.927   0.569   5.798  0.6069  0.0816  0.0602
 1963TIP3   OH222460   1.311   5.041   7.870  0.4860  0.2321  0.4265
 1963TIP3    H122461   1.315   4.998   7.784 -0.0529 -0.2037  0.6101
 1963TIP3    H222462   1.254   5.117   7.856  1.0815  0.6436  0.2041
 1964TIP3   OH222463   0.653   6.359   7.102  0.5187  0.5419  0.2276
 1964TIP3    H122464   0.695   6.282   7.140  1.1481  0.9987  0.4698
 1964TIP3    H222465   0.604   6.397   7.175 -0.9082 -0.3688 -0.2145
 1965TIP3   OH222466   1.807   3.489   8.165  0.2536 -0.0546  0.1709
 1965TIP3    H122467   1.789   3.563   8.222  1.3038  1.1675 -1.0146
 1965TIP3    H222468   1.792   3.522   8.077 -0.0778 -1.5182 -0.3497
 1966TIP3   OH222469   5.979   3.872   3.102 -0.1007  0.1700  0.5477
 1966TIP3    H122470   5.913   3.822   3.150 -1.6326  1.0339 -0.5532
 1966TIP3    H222471   6.044   3.808   3.076 -0.2430 -0.6381  2.0559
 1967TIP3   OH222472   0.996   3.115   0.843  0.1990  0.6825 -0.7771
 1967TIP3    H122473   1.038   3.062   0.911  0.5397 -0.8089 -2.0769
 1967TIP3    H222474   1.061   3.181   0.820  0.9045 -0.1105 -1.1009
 1968TIP3   OH222475   0.047   5.302   1.493  0.3758  0.1749  0.5686
 1968TIP3    H122476  -0.003   5.320   1.413  0.2045  0.5317  0.7545
 1968TIP3    H222477   0.011   5.362   1.558  0.1624 -0.4661  1.0577
 1969TIP3   OH222478   2.763   3.208   0.101 -0.5415 -0.1298  0.2502
 1969TIP3    H122479   2.816   3.160   0.164 -1.0609 -0.2729  0.5840
 1969TIP3    H222480   2.690   3.243   0.152 -0.0679  1.1959  0.0486
 1970TIP3   OH222481   4.714   0.051   9.201 -0.0164  0.6935  0.1562
 1970TIP3    H122482   4.755   0.091   9.124 -3.5739 -0.0949 -2.4099
 1970TIP3    H222483   4.652   0.116   9.231 -0.3854  0.0447  0.8214
 1971TIP3   OH222484   3.913   0.626   8.519  0.0494 -0.1335 -0.8254
 1971TIP3    H122485   3.917   0.691   8.450 -1.0290  0.5021 -0.3106
 1971TIP3    H222486   3.822   0.595   8.518  0.0232 -0.1386  0.2592
 1972TIP3   OH222487   4.516   2.244   1.846  0.1594 -0.0774  0.0078
 1972TIP3    H122488   4.431   2.272   1.882  0.1460  0.2685 -0.2925
 1972TIP3    H222489   4.493   2.182   1.777  0.0377  1.5806 -1.5243
 1973TIP3   OH222490   1.805   6.377   1.829  0.2063  0.1728  0.1398
 1973TIP3    H122491   1.763   6.378   1.914 -1.6421 -0.6151 -0.7124
 1973TIP3    H222492   1.773   6.297   1.787 -0.3554  1.4183 -1.9606
 1974TIP3   OH222493   3.945   5.695   1.608  0.2690  0.0415 -0.0966
 1974TIP3    H122494   3.918   5.700   1.516  0.3377 -1.5314 -0.2176
 1974TIP3    H222495   4.040   5.685   1.604  0.2972  0.2018  0.1558
 1975TIP3   OH222496   0.619   4.164   6.372 -0.1954  0.0269  0.2010
 1975TIP3    H122497   0.676   4.151   6.296 -0.4653 -2.2717  0.3245
 1975TIP3    H222498   0.629   4.256   6.394  2.3026  0.0353 -0.7016
 1976TIP3   OH222499   4.249  -0.020   9.406 -0.2746 -0.0394  0.1538
 1976TIP3    H122500   4.243   0.040   9.332 -1.0629  1.7036  1.5605
 1976TIP3    H222501   4.336  -0.005   9.443 -0.1437 -0.4208  0.0170
 1977TIP3   OH222502   2.622   3.208   7.273  0.4073  0.3606  0.3352
 1977TIP3    H122503   2.689   3.212   7.204 -0.1384  0.5245 -0.1917
 1977TIP3    H222504   2.652   3.272   7.338  1.0421  0.0469  0.3668
 1978TIP3   OH222505   1.009   1.453   8.639  0.3180 -0.0360  0.3665
 1978TIP3    H122506   1.057   1.526   8.599  1.5535 -1.1198 -0.1913
 1978TIP3    H222507   0.921   1.461   8.603  1.0476 -0.1948 -1.5987
 1979TIP3   OH222508   1.641   4.810   7.500  0.2102 -0.4958 -0.1690
 1979TIP3    H122509   1.619   4.898   7.531 -1.7005 -0.6619 -0.9168
 1979TIP3    H222510   1.620   4.753   7.574 -1.4620 -0.5832 -0.6593
 1980TIP3   OH222511   6.381   0.505   1.076  0.2633 -0.0346  0.0365
 1980TIP3    H122512   6.441   0.431   1.087 -0.6676 -0.9068 -0.5387
 1980TIP3    H222513   6.307   0.468   1.027  0.1134  1.4590 -0.9154
 1981TIP3   OH222514   5.310   4.693   8.683  0.4777  0.2959 -0.6315
 1981TIP3    H122515   5.261   4.614   8.660  0.2756  0.6844 -1.5736
 1981TIP3    H222516   5.254   4.738   8.746  0.9279 -0.6648  0.4865
 1982TIP3   OH222517   0.311   1.235   9.079 -0.2757  0.2852 -0.6141
 1982TIP3    H122518   0.236   1.208   9.026 -1.4764 -0.7398  1.4825
 1982TIP3    H222519   0.277   1.240   9.168  2.0803  0.0774  0.3761
 1983TIP3   OH222520   6.273   5.239   8.265  0.0956  0.2352 -0.2586
 1983TIP3    H122521   6.341   5.237   8.333 -0.6282  1.7344  0.5480
 1983TIP3    H222522   6.319   5.267   8.186  0.9339 -1.4659 -0.4279
 1984TIP3   OH222523  -0.021   2.723   2.061 -0.6563  0.0711  0.2594
 1984TIP3    H122524   0.064   2.766   2.072 -0.6694 -0.0206  0.7484
 1984TIP3    H222525  -0.007   2.634   2.095 -1.1964  0.3383  1.2185
 1985TIP3   OH222526   1.311   6.040   8.421 -0.5595 -0.2628  0.2153
 1985TIP3    H122527   1.331   6.094   8.497  2.2315  0.3380 -0.8420
 1985TIP3    H222528   1.339   5.952   8.445  1.1525  0.0910 -0.3531
 1986TIP3   OH222529   1.150   2.250   0.354  0.1160 -0.0876 -0.2465
 1986TIP3    H122530   1.054   2.246   0.355  0.0501  0.9816  0.7017
 1986TIP3    H222531   1.178   2.159   0.360 -0.8707 -0.3120  2.0841
 1987TIP3   OH222532   3.409   0.099   8.913 -0.1416 -0.2693 -0.1335
 1987TIP3    H122533   3.383   0.127   8.825  0.2339  0.3727 -0.0476
 1987TIP3    H222534   3.503   0.084   8.907 -0.3037 -1.3722 -0.1276
 1988TIP3   OH222535   1.604   5.429   1.987  0.2811  0.1694  0.2055
 1988TIP3    H122536   1.527   5.432   1.930  0.7777  3.0333 -0.5083
 1988TIP3    H222537   1.677   5.411   1.928  0.3833 -0.5771  0.5581
 1989TIP3   OH222538   1.240   1.396   6.943 -0.1012  0.1068  0.4447
 1989TIP3    H122539   1.329   1.404   6.978 -0.3667 -1.2433  1.5149
 1989TIP3    H222540   1.251   1.350   6.860  0.1642 -0.7689  0.9438
 1990TIP3   OH222541   0.282   0.477   1.571  0.4728 -0.0086 -0.3321
 1990TIP3    H122542   0.231   0.428   1.636  1.6141 -1.0028 -0.1628
 1990TIP3    H222543   0.234   0.464   1.489 -2.2215  3.0173  0.5253
 1991TIP3   OH222544   1.768   1.653   7.713  0.0044  0.0552  0.3404
 1991TIP3    H122545   1.839   1.617   7.660 -1.0836  0.7991 -1.7890
 1991TIP3    H222546   1.807   1.672   7.798  1.5301 -2.4783  0.2861
 1992TIP3   OH222547   2.485   5.625   2.862  0.4925 -0.0744 -0.4315
 1992TIP3    H122548   2.410   5.662   2.815  0.2696 -0.2969 -0.2549
 1992TIP3    H222549   2.516   5.695   2.919 -0.4623 -0.4174  0.5403
 1993TIP3   OH222550   4.034   2.398   0.468  0.4316 -0.1901  0.2243
 1993TIP3    H122551   4.116   2.350   0.462  0.7360  0.2032  1.0426
 1993TIP3    H222552   3.998   2.374   0.554  1.9386  3.0581  1.9409
 1994TIP3   OH222553   3.386   1.540   8.838 -0.4141  0.2750 -0.3440
 1994TIP3    H122554   3.315   1.597   8.869 -1.4303 -0.8701 -0.4483
 1994TIP3    H222555   3.344   1.454   8.827  1.5814 -1.2209  2.3823
 1995TIP3   OH222556   0.227   0.462   7.073 -0.4936  0.2268 -0.0225
 1995TIP3    H122557   0.247   0.368   7.071  1.2002  0.5602 -0.6723
 1995TIP3    H222558   0.150   0.469   7.128 -1.3838 -1.6716 -0.9425
 1996TIP3   OH222559   0.147   3.491   1.791 -0.4255 -0.5350 -0.1272
 1996TIP3    H122560   0.210   3.443   1.845 -1.6498  0.5030  2.3842
 1996TIP3    H222561   0.064   3.446   1.806 -0.9096  0.1473 -0.7053
 1997TIP3   OH222562   2.372   0.955   8.564  0.6779  0.3113  0.5187
 1997TIP3    H122563   2.389   1.048   8.548 -0.1372  0.5192  0.8187
 1997TIP3    H222564   2.434   0.931   8.632  2.5942 -0.0050 -1.2432
 1998TIP3   OH222565   2.249   6.139   9.431  1.0435 -0.1781 -0.4005
 1998TIP3    H122566   2.333   6.095   9.438  0.8653 -0.3279  1.2183
 1998TIP3    H222567   2.253   6.186   9.348  2.0298 -1.5865 -1.1823
 1999TIP3   OH222568   5.203   1.554   1.918  0.1881  0.0509 -0.0170
 1999TIP3    H122569   5.219   1.463   1.941 -0.3059 -0.5803 -2.0435
 1999TIP3    H222570   5.291   1.590   1.901  0.4281  0.1355  1.2494
 2000TIP3   OH222571   6.191   4.748   2.279  0.8885 -0.2853 -0.2102
 2000TIP3    H122572   6.241   4.780   2.203 -0.1953 -1.4116 -1.4572
 2000TIP3    H222573   6.234   4.666   2.303  0.6469 -0.4189 -0.2320
 2001TIP3   OH222574   4.045   5.657   2.926 -0.1516 -0.3758  0.5828
 2001TIP3    H122575   4.140   5.651   2.940 -0.0356 -1.5970 -0.5430
 2001TIP3    H222576   4.007   5.620   3.005  0.2936  0.2118  1.0862
 2002TIP3   OH222577   0.486   1.056   1.025 -0.6055 -0.6203  0.7419
 2002TIP3    H122578   0.396   1.026   1.039 -1.2848  0.5403 -0.7655
 2002TIP3    H222579   0.519   1.000   0.955 -0.4823 -0.4478  0.6629
 2003TIP3   OH222580   0.207   0.309   0.719 -0.3473  0.5907 -0.0348
 2003TIP3    H122581   0.252   0.254   0.783  0.6890  0.3894 -0.8865
 2003TIP3    H222582   0.227   0.399   0.746  1.3996  0.5076 -0.9056
 2004TIP3   OH222583   2.377   0.031   6.159  0.2560 -0.0624 -0.4992
 2004TIP3    H122584   2.342   0.009   6.245  0.4615  1.9455  0.1270
 2004TIP3    H222585   2.472   0.032   6.170  0.3184 -0.4361 -0.9318
 2005TIP3   OH222586   2.988   5.170   7.615  0.2678  0.2137 -0.5957
 2005TIP3    H122587   3.008   5.136   7.529 -0.6895  1.1206 -1.2064
 2005TIP3    H222588   2.893   5.184   7.614  0.6312  3.4692 -0.6765
 2006TIP3   OH222589   4.854   4.867   0.780  0.3462 -0.5134  0.0423
 2006TIP3    H122590   4.780   4.855   0.839 -0.2621 -0.6615 -0.7365
 2006TIP3    H222591   4.924   4.901   0.836 -0.9576  1.7763  0.4316
 2007TIP3   OH222592   4.914   3.171   7.451  0.1577  0.1844 -0.3473
 2007TIP3    H122593   4.984   3.172   7.386  1.1981  0.9189  0.7167
 2007TIP3    H222594   4.960   3.166   7.535 -1.0664  0.7319  0.3877
 2008TIP3   OH222595   1.723   2.858   9.149 -0.0214  0.0574  0.3501
 2008TIP3    H122596   1.796   2.796   9.145 -1.3697 -2.1067  3.6816
 2008TIP3    H222597   1.762   2.940   9.178  1.2768 -0.7158  0.8819
 2009TIP3   OH222598   6.395   4.426   1.735  1.0160  0.3508 -0.5581
 2009TIP3    H122599   6.363   4.345   1.695  0.8155 -0.1475  0.5960
 2009TIP3    H222600   6.339   4.495   1.697 -2.0592 -0.5421  1.8970
 2010TIP3   OH222601   4.314   3.938   8.131 -0.0181  0.0760  0.3188
 2010TIP3    H122602   4.301   3.953   8.225 -0.7508  1.0935  0.0612
 2010TIP3    H222603   4.403   3.903   8.125  0.4211  0.9673  1.2948
 2011TIP3   OH222604   5.700   4.518   7.864  0.0564  0.4435  0.2623
 2011TIP3    H122605   5.654   4.493   7.944 -0.1855  0.6667  0.1922
 2011TIP3    H222606   5.634   4.514   7.796  0.8289 -2.4571 -0.4649
 2012TIP3   OH222607   1.796   4.960   1.920  0.4698  0.0726 -0.3503
 2012TIP3    H122608   1.840   5.009   1.990 -0.5094 -1.7269  1.6624
 2012TIP3    H222609   1.868   4.927   1.866  1.1978  2.7270 -1.1589
 2013TIP3   OH222610   3.515   3.492   6.652  0.1676 -0.6432 -0.3573
 2013TIP3    H122611   3.564   3.487   6.570  0.4554  1.2834 -0.3364
 2013TIP3    H222612   3.581   3.487   6.720  0.2497  0.8173 -0.3113
 2014TIP3   OH222613   4.534   3.851   0.666  0.1816  0.5413 -0.5051
 2014TIP3    H122614   4.568   3.770   0.705 -3.4098 -1.7773 -1.7194
 2014TIP3    H222615   4.473   3.885   0.732  0.3251  1.3094 -0.7554
 2015TIP3   OH222616   3.137   4.476   1.705  0.3213 -0.1738 -0.4389
 2015TIP3    H122617   3.199   4.461   1.634 -0.8449 -0.3434 -1.4639
 2015TIP3    H222618   3.067   4.412   1.690  0.0536 -0.2223  0.8789
 2016TIP3   OH222619   0.019   1.108   0.199 -0.4800  0.8410  0.0838
 2016TIP3    H122620   0.076   1.184   0.193 -0.2268  0.6124 -0.5982
 2016TIP3    H222621   0.075   1.034   0.176 -0.5805  0.3689  1.2829
 2017TIP3   OH222622   4.588   4.093   0.536  0.0029  1.0314 -0.1609
 2017TIP3    H122623   4.566   4.153   0.607  0.5581 -0.0203  0.9332
 2017TIP3    H222624   4.574   4.006   0.573  1.9524  0.4249 -0.7513
 2018TIP3   OH222625   5.646   1.072   1.425  0.5713 -0.1844  0.3328
 2018TIP3    H122626   5.727   1.115   1.396 -0.0037  2.2330  1.9810
 2018TIP3    H222627   5.663   1.047   1.515  0.6830 -3.1302 -0.4260
 2019TIP3   OH222628   0.942   0.875   7.610  0.4302  0.2353  0.5367
 2019TIP3    H122629   0.848   0.877   7.625 -0.0400 -1.2513 -1.6905
 2019TIP3    H222630   0.976   0.948   7.661 -2.2801  2.6015 -0.7954
 2020TIP3   OH222631   1.142   6.088   8.058  0.3340 -0.0356 -0.3120
 2020TIP3    H122632   1.161   5.997   8.081  0.3828  0.1993  0.5961
 2020TIP3    H222633   1.151   6.090   7.963 -2.9631 -1.7965 -0.8183
 2021TIP3   OH222634   5.574   0.371   7.537 -0.0820 -0.3005  0.0975
 2021TIP3    H122635   5.557   0.462   7.513 -1.5691  0.0224  2.0634
 2021TIP3    H222636   5.512   0.320   7.486  0.1994 -0.1406 -0.4085
 2022TIP3   OH222637   2.033   3.555   7.894  0.0834 -0.2802 -0.3028
 2022TIP3    H122638   2.080   3.637   7.876 -0.6670 -0.2552 -2.5458
 2022TIP3    H222639   2.101   3.488   7.891  0.2707 -0.0591 -1.8054
 2023TIP3   OH222640   4.571   3.901   1.937 -0.7696 -0.2495  0.5989
 2023TIP3    H122641   4.620   3.819   1.943  1.1636  0.5910 -1.8755
 2023TIP3    H222642   4.498   3.881   1.878 -0.9794 -0.4787  0.9362
 2024TIP3   OH222643   5.187   2.348   6.539  0.3122  0.5256  0.1654
 2024TIP3    H122644   5.244   2.273   6.557  1.1932  0.4784 -2.3193
 2024TIP3    H222645   5.104   2.308   6.511  0.3003  0.5065  0.2285
 2025TIP3   OH222646   5.100   6.265   0.738 -0.2879  0.5846 -0.7162
 2025TIP3    H122647   5.141   6.239   0.820 -0.9342  0.3101 -0.4757
 2025TIP3    H222648   5.172   6.300   0.685  0.2744  0.0215 -0.3407
 2026TIP3   OH222649   4.273   1.478   2.640  0.1858 -0.0017  0.7825
 2026TIP3    H122650   4.213   1.532   2.692 -1.1451 -0.2026 -0.4966
 2026TIP3    H222651   4.254   1.388   2.667  0.2797 -0.0292  0.7568
 2027TIP3   OH222652   3.053   3.784   0.551 -0.2228  0.7366  0.5412
 2027TIP3    H122653   3.073   3.748   0.464  1.4101  3.3724 -0.2760
 2027TIP3    H222654   3.081   3.715   0.612  0.7575 -0.2610 -0.9685
 2028TIP3   OH222655   5.742   5.569   9.325 -0.1853  0.2782  0.8455
 2028TIP3    H122656   5.828   5.594   9.289  0.3750 -0.6744  1.4599
 2028TIP3    H222657   5.762   5.537   9.413 -0.8966 -1.7723  0.3149
 2029TIP3   OH222658   2.040   2.306   2.059 -0.3526 -0.1166  0.1607
 2029TIP3    H122659   2.040   2.394   2.021 -2.5246  0.0104  0.3530
 2029TIP3    H222660   1.952   2.273   2.042 -0.5449 -1.0964  2.7478
 2030TIP3   OH222661   1.530   5.456   8.522 -0.3172  0.2275  0.1786
 2030TIP3    H122662   1.438   5.483   8.522 -0.7389 -1.0903 -0.1700
 2030TIP3    H222663   1.539   5.405   8.441  1.3707  2.3704 -1.0721
 2031TIP3   OH222664   2.542   1.566   2.714 -0.1012  0.4978  0.3020
 2031TIP3    H122665   2.604   1.561   2.787  0.9987  0.1494 -0.6334
 2031TIP3    H222666   2.570   1.642   2.663  0.8154 -0.7691 -1.1901
 2032TIP3   OH222667   4.104   5.186   7.138 -0.0632  0.4797 -0.0583
 2032TIP3    H122668   4.132   5.227   7.220  0.8002 -0.6555  0.2544
 2032TIP3    H222669   4.054   5.253   7.092 -0.4797  1.1703  1.3556
 2033TIP3   OH222670   2.823   4.112   6.623 -0.1292  0.2251 -0.1311
 2033TIP3    H122671   2.731   4.134   6.635 -0.2062 -0.2816  0.2473
 2033TIP3    H222672   2.851   4.081   6.709  0.0710 -0.7866 -0.5468
 2034TIP3   OH222673   4.216   6.413   9.089 -0.6010  0.0753  0.5782
 2034TIP3    H122674   4.307   6.398   9.111 -0.3166  0.2631 -0.4003
 2034TIP3    H222675   4.169   6.339   9.126 -0.0496 -0.0521  1.0372
 2035TIP3   OH222676   1.948   2.098   2.700  0.4806 -0.6225  0.9093
 2035TIP3    H122677   1.967   2.175   2.753  0.6351 -0.2089  0.2710
 2035TIP3    H222678   1.852   2.090   2.702  0.5456 -1.2978  2.1781
 2036TIP3   OH222679   4.330   4.705   2.875  0.0594  0.0627  0.1382
 2036TIP3    H122680   4.344   4.790   2.833 -0.9619  0.1945  0.0544
 2036TIP3    H222681   4.407   4.693   2.931  1.2772  0.0468 -1.4854
 2037TIP3   OH222682   4.610   5.244   1.416 -0.0253 -0.3279  0.0643
 2037TIP3    H122683   4.682   5.303   1.393 -2.2526  1.6858 -2.4239
 2037TIP3    H222684   4.618   5.172   1.354 -1.1270  0.8647 -1.5666
 2038TIP3   OH222685   3.423   0.663   8.263  0.4055 -0.2160  0.3269
 2038TIP3    H122686   3.495   0.723   8.279 -0.1858  0.6703 -0.2233
 2038TIP3    H222687   3.358   0.715   8.217 -0.3120 -1.1715  0.2135
 2039TIP3   OH222688   4.768   4.535   0.877 -0.0581  0.3309  0.4770
 2039TIP3    H122689   4.720   4.617   0.875  1.0917  1.0316  0.8316
 2039TIP3    H222690   4.843   4.549   0.820 -0.1509 -0.6790  0.0861
 2040TIP3   OH222691   4.641   2.497   1.940  0.3927 -0.1596 -0.7352
 2040TIP3    H122692   4.706   2.480   2.008 -0.7955 -0.5854  0.3366
 2040TIP3    H222693   4.639   2.417   1.888  4.2921  1.5200 -4.0279
 2041TIP3   OH222694   3.475   3.636   9.257  0.2789 -0.6833  0.2254
 2041TIP3    H122695   3.394   3.590   9.235 -0.6925  1.1571 -0.2173
 2041TIP3    H222696   3.543   3.569   9.251 -1.0724 -2.0480 -0.3905
 2042TIP3   OH222697   5.679   5.275   1.874 -0.7823  0.0912  0.0342
 2042TIP3    H122698   5.645   5.318   1.795  0.5286 -0.3404 -0.7997
 2042TIP3    H222699   5.640   5.188   1.873 -0.9165  0.1521 -0.0332
 2043TIP3   OH222700   3.179   0.124   0.923  0.4324 -0.2609  0.0604
 2043TIP3    H122701   3.215   0.067   0.855 -1.4824  0.8241 -2.0003
 2043TIP3    H222702   3.091   0.146   0.892 -0.5129  0.3900  2.8790
 2044TIP3   OH222703   1.960   3.253   7.189  0.4952 -0.1969 -0.0697
 2044TIP3    H122704   2.033   3.293   7.236  1.7159 -2.5439  0.1734
 2044TIP3    H222705   1.901   3.221   7.257  1.3002 -1.8715 -0.1090
 2045TIP3   OH222706   5.419   4.589   2.409  0.5245 -0.4853 -0.3075
 2045TIP3    H122707   5.365   4.536   2.352  1.5476 -1.0459 -0.7763
 2045TIP3    H222708   5.401   4.556   2.497 -1.0958  0.4192 -0.2531
 2046TIP3   OH222709   0.885   1.044   2.074 -0.3616 -0.3359 -0.5324
 2046TIP3    H122710   0.966   1.010   2.110 -0.4542 -0.9298 -0.8858
 2046TIP3    H222711   0.833   0.967   2.052 -1.0097  0.0351 -0.3411
 2047TIP3   OH222712   3.077   3.395   0.710 -0.6610  0.2974 -0.3124
 2047TIP3    H122713   3.153   3.361   0.663  0.0260  1.0661  0.2316
 2047TIP3    H222714   3.104   3.480   0.743 -2.1496  1.1229 -1.1049
 2048TIP3   OH222715   5.349   0.905   0.051 -0.3302  0.1692 -0.3773
 2048TIP3    H122716   5.298   0.827   0.030 -1.6248  0.9595 -0.2336
 2048TIP3    H222717   5.367   0.945  -0.034 -0.8638  0.4489 -0.3613
 2049TIP3   OH222718   0.246   4.917   3.137 -0.4219 -0.6490  0.4291
 2049TIP3    H122719   0.166   4.874   3.167 -0.9409 -0.8351 -1.1131
 2049TIP3    H222720   0.287   4.853   3.078  0.9633 -0.6150  1.3051
 2050TIP3   OH222721   3.205   3.411   1.748 -0.0036 -0.1864 -0.1351
 2050TIP3    H122722   3.282   3.422   1.804 -0.0923 -1.5361  0.2646
 2050TIP3    H222723   3.232   3.449   1.664  1.2755 -1.0527 -0.1442
 2051TIP3   OH222724   1.349   6.308   7.884 -0.0982 -0.0961  0.1282
 2051TIP3    H122725   1.431   6.309   7.834 -0.9155 -0.0474 -1.2533
 2051TIP3    H222726   1.376   6.327   7.974  1.4552 -0.4866 -0.2205
 2052TIP3   OH222727   6.325   1.953   0.386  0.4430 -0.1683  0.7823
 2052TIP3    H122728   6.352   1.959   0.294  1.0077 -1.0079  0.8831
 2052TIP3    H222729   6.240   1.997   0.389  0.1594 -0.6201 -0.2551
 2053TIP3   OH222730   5.134   0.124   7.026  0.4547  0.3977 -0.0989
 2053TIP3    H122731   5.137   0.031   7.000  0.4078  0.6398 -1.0034
 2053TIP3    H222732   5.067   0.127   7.095  1.3773 -0.4466  0.8755
 2054TIP3   OH222733   6.389   5.496   1.717 -0.3125  0.0613  0.6670
 2054TIP3    H122734   6.432   5.444   1.785 -0.2716  0.9169  1.3132
 2054TIP3    H222735   6.299   5.507   1.748 -0.3082  0.4184  0.5597
 2055TIP3   OH222736   1.290   2.654   8.573  0.1698 -0.1892  0.5354
 2055TIP3    H122737   1.291   2.750   8.570  2.3628 -0.1870 -0.1380
 2055TIP3    H222738   1.212   2.633   8.624 -0.5155  1.9352  0.4760
 2056TIP3   OH222739   3.777   1.130   7.362  0.0645 -0.2933 -0.7697
 2056TIP3    H122740   3.844   1.187   7.323  0.0686 -0.6757 -1.3293
 2056TIP3    H222741   3.827   1.070   7.417 -0.0427  1.0253  0.8329
 2057TIP3   OH222742   4.578   1.872   0.817 -0.0832 -0.0564 -0.7561
 2057TIP3    H122743   4.538   1.940   0.763  0.9447  0.6980 -0.6171
 2057TIP3    H222744   4.534   1.791   0.791 -1.7183  0.7245 -0.5436
 2058TIP3   OH222745   2.915   4.852   1.204  0.2738 -0.2008  0.1096
 2058TIP3    H122746   2.828   4.862   1.166  1.6269  1.0521 -2.9543
 2058TIP3    H222747   2.926   4.928   1.262 -0.6270 -0.3630  0.4996
 2059TIP3   OH222748   1.720   4.938   7.192  0.0138 -0.3226  0.1737
 2059TIP3    H122749   1.687   4.869   7.134  0.4938 -1.5503  1.3298
 2059TIP3    H222750   1.762   4.891   7.264 -0.4992  1.1686  1.4945
 2060TIP3   OH222751   3.753   4.389   1.316  0.4017 -0.6531 -0.2360
 2060TIP3    H122752   3.843   4.388   1.349  0.5223  0.4734 -0.4878
 2060TIP3    H222753   3.760   4.356   1.226  0.4444 -1.2849 -0.0076
 2061TIP3   OH222754   0.285   0.335   7.377  0.0430 -0.3221 -0.0052
 2061TIP3    H122755   0.371   0.344   7.338 -0.8637 -0.5168 -2.1957
 2061TIP3    H222756   0.274   0.241   7.391  0.5264 -0.2217  1.2028
 2062TIP3   OH222757   4.439   2.122   6.801 -0.0891  0.3528 -0.6872
 2062TIP3    H122758   4.466   2.194   6.859  2.2924 -0.2577 -0.9068
 2062TIP3    H222759   4.400   2.165   6.726 -1.8703  1.2280  0.6712
 2063TIP3   OH222760   3.538   2.149   8.094 -0.2244  0.2244  0.3695
 2063TIP3    H122761   3.506   2.238   8.105  0.7101  0.5369  0.6721
 2063TIP3    H222762   3.505   2.122   8.008 -1.4038  0.4635  0.7343
 2064TIP3   OH222763   2.063   1.748   8.263  0.2898  0.4510  0.0413
 2064TIP3    H122764   2.151   1.731   8.228  0.4285  1.1975  0.0022
 2064TIP3    H222765   2.059   1.697   8.343  1.4464  1.7746  1.0092
 2065TIP3   OH222766   3.481   0.500   7.573 -0.0687  0.1511  0.0147
 2065TIP3    H122767   3.422   0.476   7.501  0.2570 -0.3857 -0.0849
 2065TIP3    H222768   3.560   0.533   7.529 -0.4495  1.2625  0.1529
 2066TIP3   OH222769   0.277   2.711   6.581 -0.2711 -0.1007  0.3329
 2066TIP3    H122770   0.302   2.634   6.529  3.4065  1.0701  0.0459
 2066TIP3    H222771   0.186   2.727   6.557 -0.5153 -3.0503 -1.2535
 2067TIP3   OH222772   3.130   0.614   0.008  0.3651 -0.1192  0.1400
 2067TIP3    H122773   3.061   0.676   0.033  0.2418 -1.0350  2.2721
 2067TIP3    H222774   3.204   0.637   0.063  0.8047 -0.9420 -0.0966
 2068TIP3   OH222775   6.381   6.096   8.338 -0.7313 -0.4551 -0.4387
 2068TIP3    H122776   6.401   6.097   8.431 -2.8140 -0.4761  0.0427
 2068TIP3    H222777   6.333   6.177   8.323 -0.5856 -0.5458 -1.4598
 2069TIP3   OH222778   0.086   0.282   1.129 -0.1867  0.1807 -0.4328
 2069TIP3    H122779   0.045   0.198   1.149  1.0187 -0.4567 -0.5465
 2069TIP3    H222780   0.178   0.270   1.150  0.1270  1.2699 -1.0650
 2070TIP3   OH222781   0.554   2.781   0.490 -0.1881  0.2179  0.4009
 2070TIP3    H122782   0.597   2.757   0.408  0.6834 -0.4904  1.0444
 2070TIP3    H222783   0.477   2.723   0.494  0.1314 -0.2105  0.3935
 2071TIP3   OH222784   2.061   4.646   1.591 -0.6201 -0.3585 -0.0765
 2071TIP3    H122785   1.997   4.706   1.630 -0.2566  0.1136 -0.1883
 2071TIP3    H222786   2.055   4.566   1.643 -2.4143 -0.9167 -1.0525
 2072TIP3   OH222787   1.447   4.355   3.081  0.4189 -0.6034 -0.2100
 2072TIP3    H122788   1.489   4.389   3.161  1.6867 -1.1792 -0.5976
 2072TIP3    H222789   1.367   4.406   3.072  2.0551  2.0849 -0.5951
 2073TIP3   OH222790   4.995   2.954   6.812  0.5098 -0.4261  0.4435
 2073TIP3    H122791   4.984   3.006   6.732  0.8570  0.3632  0.8936
 2073TIP3    H222792   4.907   2.929   6.837  0.2213  0.9239  0.8453
 2074TIP3   OH222793   4.620   0.965   2.780  0.3938  0.2614 -1.0205
 2074TIP3    H122794   4.639   0.906   2.708  1.0412 -1.1643  0.2702
 2074TIP3    H222795   4.537   0.933   2.816  0.0580  0.9787 -1.1401
 2075TIP3   OH222796   3.052   5.495   0.223 -0.1712  0.2325  0.6085
 2075TIP3    H122797   3.089   5.581   0.242  0.0800  0.0965  0.7520
 2075TIP3    H222798   3.053   5.449   0.307  0.1205 -0.0675  0.4467
 2076TIP3   OH222799   5.671   4.416   8.355  0.0941 -0.1371 -0.2597
 2076TIP3    H122800   5.710   4.329   8.363 -0.5349 -0.4065 -0.0262
 2076TIP3    H222801   5.706   4.464   8.431 -1.1411 -0.8279  0.7850
 2077TIP3   OH222802   2.924   3.356   0.976  0.4586  0.2271 -0.7128
 2077TIP3    H122803   3.019   3.355   0.968  0.4616  1.3334 -0.9063
 2077TIP3    H222804   2.908   3.368   1.070  0.4865 -0.9347 -0.5406
 2078TIP3   OH222805   1.607   0.119   7.889 -0.0178  0.1457 -0.1864
 2078TIP3    H122806   1.674   0.186   7.902 -0.4271  0.4529  0.3990
 2078TIP3    H222807   1.543   0.136   7.959 -0.2742 -0.6667 -0.2193
 2079TIP3   OH222808   2.604   4.308   7.761  0.5220  0.5618 -0.4432
 2079TIP3    H122809   2.548   4.284   7.835  1.3477  0.9750  0.3446
 2079TIP3    H222810   2.624   4.400   7.775  0.1674  0.8235 -1.5528
 2080TIP3   OH222811   2.708   2.445   1.654  0.4512 -0.1110 -0.1286
 2080TIP3    H122812   2.667   2.425   1.738  0.6890 -0.0871 -0.0043
 2080TIP3    H222813   2.776   2.378   1.645 -0.3421 -0.8485 -0.8624
 2081TIP3   OH222814   2.376   0.698   7.650  0.0993  0.4871 -0.3273
 2081TIP3    H122815   2.371   0.639   7.575 -1.8243  1.8572 -1.3455
 2081TIP3    H222816   2.435   0.653   7.711  2.9580 -0.0389 -3.1766
 2082TIP3   OH222817   3.695   5.983   8.260 -0.3214 -0.9222 -0.5110
 2082TIP3    H122818   3.660   6.068   8.286 -0.4777 -0.7074 -1.4086
 2082TIP3    H222819   3.646   5.959   8.182  1.6973 -0.4739 -1.9887
 2083TIP3   OH222820   6.403   5.088   7.906  0.6331  0.2563 -0.4731
 2083TIP3    H122821   6.346   5.137   7.847  0.8333 -0.2271 -1.0820
 2083TIP3    H222822   6.490   5.125   7.892  0.6254  0.3742 -0.2189
 2084TIP3   OH222823   0.942   6.048   8.574  0.1908  0.3732 -0.2850
 2084TIP3    H122824   1.014   5.987   8.588  0.3105  0.4049 -0.7621
 2084TIP3    H222825   0.963   6.092   8.492 -1.6650 -1.4634 -1.8567
 2085TIP3   OH222826   2.056   1.133   1.552 -0.2001  0.2319  0.7193
 2085TIP3    H122827   2.064   1.055   1.608  1.0247 -1.0026 -1.0674
 2085TIP3    H222828   1.980   1.115   1.496  2.2023 -1.5536 -2.2721
 2086TIP3   OH222829   5.942   2.366   8.183 -0.1571 -0.0758  0.6034
 2086TIP3    H122830   6.014   2.429   8.184  0.2439 -0.4324 -1.8569
 2086TIP3    H222831   5.868   2.416   8.149 -0.2261 -0.5538  0.0508
 2087TIP3   OH222832   4.726   6.450   7.177  0.3107 -0.0410  0.7080
 2087TIP3    H122833   4.631   6.464   7.183  0.1208 -1.4196  1.4542
 2087TIP3    H222834   4.741   6.370   7.228  1.9467  0.4180  0.9997
 2088TIP3   OH222835   1.023   5.564   8.019 -0.2938  0.0295 -0.5029
 2088TIP3    H122836   0.953   5.626   8.039 -1.3117 -1.4331  0.7073
 2088TIP3    H222837   1.086   5.574   8.090  0.0245  0.3277 -0.8210
 2089TIP3   OH222838   6.390   0.445   8.704 -0.0917 -0.5254  0.4187
 2089TIP3    H122839   6.438   0.521   8.670 -0.0913 -0.0273  1.4736
 2089TIP3    H222840   6.401   0.378   8.638 -0.2565  0.4590 -0.6335
 2090TIP3   OH222841   6.017   2.833   0.954  0.5880 -0.1557  0.7473
 2090TIP3    H122842   5.928   2.861   0.932 -0.1572 -2.1580  1.0205
 2090TIP3    H222843   6.051   2.796   0.873  1.0474  0.2472  0.7501
 2091TIP3   OH222844   0.050   0.079   7.877  0.2466  0.5051 -0.1381
 2091TIP3    H122845  -0.028   0.024   7.871  1.2945 -0.9685 -0.8919
 2091TIP3    H222846   0.062   0.113   7.788  1.0783 -0.1982 -0.3121
 2092TIP3   OH222847   0.500   2.732   6.383  0.0609 -0.0145 -0.0738
 2092TIP3    H122848   0.536   2.713   6.470  0.7703  1.7000  0.0372
 2092TIP3    H222849   0.420   2.678   6.379  1.5974 -2.5126  0.3735
 2093TIP3   OH222850   3.608   2.501   8.785  0.0145  0.0904  0.1506
 2093TIP3    H122851   3.561   2.568   8.735  1.0209  0.3790 -0.4397
 2093TIP3    H222852   3.546   2.475   8.854 -1.1170  0.2082 -0.7949
 2094TIP3   OH222853   3.157   2.908   0.424  0.6685 -0.0163 -0.3355
 2094TIP3    H122854   3.159   2.958   0.343 -0.5468 -0.9417 -0.9720
 2094TIP3    H222855   3.105   2.831   0.403 -0.3703  0.1163  1.5411
 2095TIP3   OH222856   0.875   1.365   5.870  0.0316  0.1715 -0.2194
 2095TIP3    H122857   0.825   1.420   5.930  0.0621  0.3510 -0.3564
 2095TIP3    H222858   0.816   1.292   5.849 -0.9398  1.3864 -1.9146
 2096TIP3   OH222859   1.251   4.505   6.856  0.1459 -0.0613 -0.0436
 2096TIP3    H122860   1.275   4.468   6.771  0.4790  0.9808 -0.4187
 2096TIP3    H222861   1.267   4.599   6.847  0.9711 -0.0256  1.4371
 2097TIP3   OH222862   3.135   2.301   2.706 -0.1135  0.0386  0.0605
 2097TIP3    H122863   3.084   2.379   2.685 -1.0776 -0.7521 -0.6193
 2097TIP3    H222864   3.174   2.320   2.791  0.0896  1.4606 -0.3223
 2098TIP3   OH222865   6.211   1.730   1.622  0.3429  0.7668  0.7697
 2098TIP3    H122866   6.247   1.641   1.624  0.2696  0.6681 -0.7978
 2098TIP3    H222867   6.288   1.787   1.629  0.6862  0.5568 -0.9459
 2099TIP3   OH222868   5.588   2.222   8.418  0.3581  0.0996 -0.3835
 2099TIP3    H122869   5.503   2.182   8.399 -1.1664  2.6978  0.4319
 2099TIP3    H222870   5.624   2.245   8.333 -1.0712  1.3867 -0.6838
 2100TIP3   OH222871   4.115   0.692   6.992  0.1893  0.4480  0.7208
 2100TIP3    H122872   4.200   0.684   6.948 -1.0912  1.5480 -2.1817
 2100TIP3    H222873   4.051   0.665   6.926 -1.9875  3.7568  1.2326
 2101TIP3   OH222874   3.872   1.533   8.718  0.5331  0.1699 -0.1825
 2101TIP3    H122875   3.846   1.451   8.761 -0.4523  0.0241 -1.0065
 2101TIP3    H222876   3.794   1.560   8.670  0.6647  1.8944  0.5025
 2102TIP3   OH222877   0.239   1.659   1.521 -0.1282  0.2301  0.1035
 2102TIP3    H122878   0.264   1.568   1.537 -1.2203 -0.0422  0.3646
 2102TIP3    H222879   0.287   1.709   1.587 -0.4508 -0.3000  0.7549
 2103TIP3   OH222880   4.698   4.744   2.326 -0.9225  0.6108 -0.6280
 2103TIP3    H122881   4.627   4.720   2.385  1.2063  0.2211  2.0248
 2103TIP3    H222882   4.702   4.839   2.330  0.3855  0.5405  1.5695
 2104TIP3   OH222883   2.226   3.749   7.200  0.3900  0.0107  0.3864
 2104TIP3    H122884   2.243   3.796   7.118  0.2363 -0.0407  0.3234
 2104TIP3    H222885   2.158   3.800   7.243  1.5868  0.9309  1.2425
 2105TIP3   OH222886   2.204   5.169   7.586 -0.5520 -0.1568  0.4769
 2105TIP3    H122887   2.232   5.253   7.549 -1.4747  0.7485  1.7657
 2105TIP3    H222888   2.133   5.192   7.646 -0.1610 -1.7414  1.5943
 2106TIP3   OH222889   5.938   0.648   1.664 -0.2806  0.3064 -0.2201
 2106TIP3    H122890   5.987   0.566   1.654  0.3108  0.4790  1.0761
 2106TIP3    H222891   5.846   0.621   1.662 -0.1070 -0.6662  1.8479
 2107TIP3   OH222892   5.330   0.842   2.054 -0.6971  0.2317 -0.4988
 2107TIP3    H122893   5.310   0.932   2.079  0.0009 -0.0813  1.3378
 2107TIP3    H222894   5.313   0.791   2.133  1.4284 -0.8904 -0.7087
 2108TIP3   OH222895   1.011   5.150   7.608 -0.2368  0.3015  0.0315
 2108TIP3    H122896   0.925   5.161   7.569 -0.3465  0.4721  0.3191
 2108TIP3    H222897   1.004   5.192   7.694  0.4655  1.3439 -0.3949
 2109TIP3   OH222898   0.527   4.186   0.761 -0.4033 -0.6453  0.0251
 2109TIP3    H122899   0.546   4.218   0.849 -1.3166  1.2518 -0.4124
 2109TIP3    H222900   0.613   4.174   0.721  0.0038 -0.6935  0.8899
 2110TIP3   OH222901   4.934   6.367   8.594 -0.4062 -0.0896 -0.2751
 2110TIP3    H122902   4.961   6.407   8.512 -1.8041 -0.4242 -0.9279
 2110TIP3    H222903   4.847   6.331   8.576 -1.5601  1.3948  1.8577
 2111TIP3   OH222904   5.520   0.629   0.051  0.7192  0.1867  0.6569
 2111TIP3    H122905   5.470   0.710   0.041  2.0977  1.3472  2.4792
 2111TIP3    H222906   5.455   0.560   0.044 -0.5609  1.4238 -0.6210
 2112TIP3   OH222907   0.699   1.801   7.791  0.0459 -0.2966  0.0545
 2112TIP3    H122908   0.697   1.742   7.867  1.3890  0.0772  0.3942
 2112TIP3    H222909   0.716   1.887   7.829 -0.5156  0.0996 -0.5762
 2113TIP3   OH222910   0.575   2.213   7.368 -1.0110 -0.4563 -0.2923
 2113TIP3    H122911   0.522   2.160   7.427 -1.9723  0.3157 -0.4201
 2113TIP3    H222912   0.580   2.298   7.411 -0.5774 -0.2840 -0.6845
 2114TIP3   OH222913   2.319   3.056   8.679  0.7011 -0.1505 -0.2026
 2114TIP3    H122914   2.272   3.073   8.760 -0.6302 -2.1021 -0.5091
 2114TIP3    H222915   2.324   2.960   8.673  1.8147 -0.0356 -1.8291
 2115TIP3   OH222916   2.744   5.003   1.939  0.1372  0.6716  0.3756
 2115TIP3    H122917   2.771   4.927   1.886  0.3146  0.1674  1.1649
 2115TIP3    H222918   2.652   5.015   1.918  0.8652  2.3372 -2.2647
 2116TIP3   OH222919   0.693   6.431   8.607 -0.3336  0.1717 -0.2929
 2116TIP3    H122920   0.680   6.363   8.673 -0.9265 -0.2345 -0.8176
 2116TIP3    H222921   0.678   6.387   8.524  0.7036  0.6015 -0.7349
 2117TIP3   OH222922   3.714   6.259   7.685  0.7890  0.3581 -0.1294
 2117TIP3    H122923   3.741   6.298   7.768  0.7705 -1.6266  0.8786
 2117TIP3    H222924   3.779   6.288   7.621  0.3160  2.6286  0.3537
 2118TIP3   OH222925   4.523   6.324   7.423 -0.0687  0.1381 -0.2472
 2118TIP3    H122926   4.473   6.282   7.353  0.8499 -1.4920  0.0270
 2118TIP3    H222927   4.611   6.288   7.415  0.7527  1.9254  0.1270
 2119TIP3   OH222928   5.928   6.302   0.263  0.2489 -0.0941  0.1561
 2119TIP3    H122929   5.905   6.359   0.336 -0.0620 -0.6430  0.4966
 2119TIP3    H222930   5.941   6.216   0.303  0.6277 -0.2787 -0.3598
 2120TIP3   OH222931   3.179   1.646   3.000 -0.6290  0.3357 -0.3697
 2120TIP3    H122932   3.266   1.684   3.013 -1.2697  1.8742 -0.3136
 2120TIP3    H222933   3.133   1.663   3.082 -1.8656  2.1282 -1.3575
 2121TIP3   OH222934   3.523   5.507   9.239 -0.3736 -0.0194  0.3782
 2121TIP3    H122935   3.496   5.415   9.241 -0.2288 -0.0774 -0.1883
 2121TIP3    H222936   3.450   5.554   9.279 -0.3430 -0.4026  0.8969
 2122TIP3   OH222937   1.681   4.037   9.019  0.5170 -0.0301  0.2545
 2122TIP3    H122938   1.635   4.110   9.060  0.7283 -0.1128  0.6394
 2122TIP3    H222939   1.611   3.984   8.980  0.3303  0.1461  0.3442
 2123TIP3   OH222940   0.931   0.936   1.815 -0.4404 -0.4457 -0.2332
 2123TIP3    H122941   0.861   0.891   1.767 -0.4444  0.6089 -1.2696
 2123TIP3    H222942   0.896   1.024   1.831 -0.2781 -0.6514  1.3991
 2124TIP3   OH222943   6.447   6.422   8.412  0.2681 -0.1823  0.1117
 2124TIP3    H122944   6.488   6.442   8.328 -1.8447  2.2811 -0.4733
 2124TIP3    H222945   6.364   6.382   8.389 -0.2875  0.4208  1.0037
 2125TIP3   OH222946   0.061   0.870   9.258 -0.7815  0.0647 -0.1852
 2125TIP3    H122947   0.014   0.835   9.334 -0.9146 -1.0084 -0.7542
 2125TIP3    H222948   0.110   0.945   9.293 -0.9706 -0.3148  0.9243
 2126TIP3   OH222949   0.818   3.255   1.005  0.3285  0.0999 -0.1649
 2126TIP3    H122950   0.888   3.301   1.052  3.0370 -2.6551 -1.1874
 2126TIP3    H222951   0.858   3.228   0.923 -2.0932 -1.2939 -0.9863
 2127TIP3   OH222952   0.202   1.263   8.713 -0.1493 -0.2594  0.1211
 2127TIP3    H122953   0.227   1.316   8.638 -2.6931 -0.2433 -0.8097
 2127TIP3    H222954   0.272   1.198   8.721  0.9509  0.7057 -1.2551
 2128TIP3   OH222955   4.344   2.260   1.518  0.0884 -0.5839 -0.1811
 2128TIP3    H122956   4.309   2.328   1.576  1.2910 -0.8611  0.9232
 2128TIP3    H222957   4.308   2.179   1.554 -0.7698 -0.6165 -1.0685
 2129TIP3   OH222958   6.142   2.562   8.135  0.2629  0.2956 -0.1208
 2129TIP3    H122959   6.169   2.642   8.181  0.4170  0.1952 -0.0360
 2129TIP3    H222960   6.209   2.548   8.068 -0.8692  1.4184 -1.5656
 2130TIP3   OH222961   5.603   1.210   8.120  0.1175 -0.2275  0.1889
 2130TIP3    H122962   5.687   1.193   8.078 -0.0674 -1.1730  0.1952
 2130TIP3    H222963   5.626   1.253   8.203  0.4676  1.9251 -0.9565
 2131TIP3   OH222964   1.445   2.615   0.448 -0.2290 -0.1605  0.6980
 2131TIP3    H122965   1.360   2.597   0.409 -0.8031 -0.0116  1.8474
 2131TIP3    H222966   1.497   2.536   0.431  0.0864  0.4849 -1.7199
 2132TIP3   OH222967   0.915   3.603   0.444  0.0636 -0.1000  0.4502
 2132TIP3    H122968   0.929   3.547   0.520  0.6916 -0.0594  0.3738
 2132TIP3    H222969   0.839   3.566   0.399  2.4828 -3.1290 -1.5697
 2133TIP3   OH222970   3.412   2.638   2.387 -0.6150 -0.1337 -0.3439
 2133TIP3    H122971   3.411   2.726   2.425 -0.5159  0.4782 -1.6950
 2133TIP3    H222972   3.319   2.617   2.374 -0.6044  0.3465 -1.2610
 2134TIP3   OH222973   2.183   3.489   9.351 -0.2159 -0.4550 -0.4415
 2134TIP3    H122974   2.255   3.528   9.301  0.0049  1.6182  1.3595
 2134TIP3    H222975   2.226   3.430   9.413  0.0806  1.1114  0.9347
 2135TIP3   OH222976   1.243   1.989   0.314 -0.1886 -0.1012 -0.2576
 2135TIP3    H122977   1.290   1.968   0.233  0.1342  0.0927 -0.1214
 2135TIP3    H222978   1.151   1.971   0.294 -0.1131 -0.0230 -0.6799
 2136TIP3   OH222979   5.105   5.551   8.327  0.0591 -0.4079  0.0064
 2136TIP3    H122980   5.059   5.469   8.311 -0.7377 -0.1767  1.0199
 2136TIP3    H222981   5.035   5.616   8.338  0.6534  0.1601  0.5085
 2137TIP3   OH222982   1.572   2.582   8.616 -0.2982  0.0421 -0.1726
 2137TIP3    H122983   1.486   2.581   8.574  0.4644 -0.8931 -1.7895
 2137TIP3    H222984   1.596   2.674   8.621 -1.4878  0.3303  0.5508
 2138TIP3   OH222985   3.886   5.929   3.312  0.5923 -0.6840  0.3022
 2138TIP3    H122986   3.981   5.926   3.304  0.4350 -2.9535 -2.4210
 2138TIP3    H222987   3.855   5.871   3.242 -2.8546  1.6807 -0.3668
 2139TIP3   OH222988   6.192   3.417   6.849  0.7659 -0.1284  0.1549
 2139TIP3    H122989   6.283   3.398   6.869  0.7659 -0.0605  0.2219
 2139TIP3    H222990   6.191   3.512   6.833  1.0431 -0.3786 -1.6015
 2140TIP3   OH222991   3.519   5.671   2.944  0.2805 -0.1007  0.3071
 2140TIP3    H122992   3.483   5.665   2.855 -0.9306  3.2259  0.4350
 2140TIP3    H222993   3.465   5.611   2.996 -0.6367 -0.2319 -0.7634
 2141TIP3   OH222994   1.484   5.954   2.717 -0.2127 -0.2414  0.3166
 2141TIP3    H122995   1.456   6.022   2.778 -0.9711 -1.7695  1.7392
 2141TIP3    H222996   1.579   5.953   2.724 -0.1837  0.7273  0.1938
 2142TIP3   OH222997   2.521   0.129   0.918  0.4979  0.5157  0.2075
 2142TIP3    H122998   2.601   0.172   0.949 -0.8006  2.6496  0.8166
 2142TIP3    H222999   2.452   0.163   0.975 -1.2604  0.9164 -2.0052
 2143TIP3   OH223000   1.670   4.964   2.716  0.3482 -0.0688  0.0183
 2143TIP3    H123001   1.600   4.901   2.733  0.6701 -0.9447 -1.7182
 2143TIP3    H223002   1.749   4.922   2.750  0.1558  0.7127  1.5360
 2144TIP3   OH223003   2.102   0.964   6.722  0.0113 -0.1047 -0.4095
 2144TIP3    H123004   2.104   1.016   6.642 -0.3178 -2.0244 -1.7192
 2144TIP3    H223005   2.190   0.970   6.757  0.4474 -0.0547 -1.4849
 2145TIP3   OH223006   0.093   3.549   2.391  0.7840  0.1606  0.3294
 2145TIP3    H123007   0.031   3.583   2.456  1.5495  0.9799  0.6533
 2145TIP3    H223008   0.161   3.507   2.443  0.1915 -1.3429 -0.0473
 2146TIP3   OH223009   2.808   3.370   1.868  0.0042  0.4555  0.1365
 2146TIP3    H123010   2.848   3.400   1.949  1.7514  1.3412 -1.0028
 2146TIP3    H223011   2.825   3.440   1.805 -0.9520 -0.3858 -1.1161
 2147TIP3   OH223012   1.781   2.181   1.013  0.0709  0.3101 -0.9573
 2147TIP3    H123013   1.743   2.148   0.932  0.1387 -2.2487 -0.0410
 2147TIP3    H223014   1.846   2.115   1.037 -0.7772  0.3562  1.7785
 2148TIP3   OH223015   3.400   1.457   0.774 -0.0068 -0.2486  0.2774
 2148TIP3    H123016   3.332   1.516   0.807  0.0692 -0.9751  1.8359
 2148TIP3    H223017   3.362   1.369   0.784  0.6697 -0.5813 -0.0136
 2149TIP3   OH223018   3.572   6.327   8.305  0.6930 -0.1917  0.2062
 2149TIP3    H123019   3.501   6.263   8.316  0.7666 -0.1958  0.6993
 2149TIP3    H223020   3.582   6.335   8.210 -0.1804  0.0499  0.1235
 2150TIP3   OH223021   2.784   0.622   0.892  0.1186 -0.4076  0.1167
 2150TIP3    H123022   2.814   0.708   0.864 -0.5606 -0.1517  0.1409
 2150TIP3    H223023   2.827   0.560   0.832  0.0198  0.0066 -0.3893
 2151TIP3   OH223024   3.479   4.781   1.198 -0.2781  0.0323 -0.1784
 2151TIP3    H123025   3.541   4.827   1.254 -1.9636  1.0092  0.9416
 2151TIP3    H223026   3.482   4.690   1.228  3.2603 -0.8901 -2.5724
 2152TIP3   OH223027   2.396   0.457   2.952  0.5015 -0.0580  0.6250
 2152TIP3    H123028   2.317   0.443   3.005  0.1269  0.2460  0.1548
 2152TIP3    H223029   2.391   0.390   2.884 -0.6607  1.4842 -0.8992
 2153TIP3   OH223030   1.603   3.029   2.779  0.1862 -0.1750  0.8593
 2153TIP3    H123031   1.637   2.984   2.856  0.4000  1.3868  1.7126
 2153TIP3    H223032   1.678   3.032   2.719 -0.0752 -1.6949  0.3979
 2154TIP3   OH223033   4.241   5.217   7.878 -0.3843 -0.0570 -0.0000
 2154TIP3    H123034   4.254   5.309   7.855 -2.3025 -0.3912 -3.0284
 2154TIP3    H223035   4.269   5.169   7.801  0.8567 -2.1232  1.6314
 2155TIP3   OH223036   2.403   5.753   2.538  0.1164 -0.3191  0.0304
 2155TIP3    H123037   2.370   5.702   2.465 -0.3068 -0.4555  0.3155
 2155TIP3    H223038   2.498   5.751   2.528  0.1081 -1.2410  0.0976
 2156TIP3   OH223039   3.940   1.697   0.494 -0.1937  0.3898 -0.1414
 2156TIP3    H123040   3.935   1.784   0.453  1.1680  1.0686  1.0356
 2156TIP3    H223041   3.897   1.639   0.432 -0.2912  1.7589 -1.4139
 2157TIP3   OH223042   5.685   1.762   8.214  0.7349 -0.0665  0.4219
 2157TIP3    H123043   5.642   1.684   8.178 -1.0006  0.4831  1.2230
 2157TIP3    H223044   5.622   1.832   8.203  2.1212  1.1800  0.0938
 2158TIP3   OH223045   1.280   5.627   1.178 -0.0116  0.0636  0.0769
 2158TIP3    H123046   1.262   5.693   1.112  0.3231 -1.3286 -1.4724
 2158TIP3    H223047   1.264   5.671   1.261  0.5762  2.1818 -0.8767
 2159TIP3   OH223048   4.061   6.104   1.296 -0.2039  0.4444  0.3147
 2159TIP3    H123049   4.150   6.125   1.269 -0.4295 -0.3954 -1.1861
 2159TIP3    H223050   4.012   6.185   1.281  0.3063  0.9589  1.2989
 2160TIP3   OH223051   3.430   4.518   8.631 -0.1113 -0.6441  0.2947
 2160TIP3    H123052   3.464   4.541   8.545 -0.3304  0.0733  0.3889
 2160TIP3    H223053   3.391   4.432   8.620 -2.2415  0.3903 -0.9157
 2161TIP3   OH223054   3.674  -0.007   0.153  0.5411  0.3418  0.4636
 2161TIP3    H123055   3.707   0.077   0.183 -0.6182  1.8142 -2.0859
 2161TIP3    H223056   3.580  -0.005   0.172  0.2842  0.1828 -0.6757
 2162TIP3   OH223057   3.992   1.796   8.727  0.1862 -0.4304  1.1460
 2162TIP3    H123058   4.082   1.803   8.694 -0.3540  1.9272 -0.0770
 2162TIP3    H223059   3.965   1.708   8.705  1.3713 -0.3777 -0.7853
 2163TIP3   OH223060   5.462   0.403   0.351  0.1687  0.3169  0.0794
 2163TIP3    H123061   5.523   0.472   0.376  1.2592 -0.7673  0.5150
 2163TIP3    H223062   5.456   0.410   0.256  0.2296  1.0208  0.1178
 2164TIP3   OH223063   4.576   6.391   7.874  0.0825  0.1111 -0.6905
 2164TIP3    H123064   4.580   6.312   7.820  4.9522  0.9964 -2.0956
 2164TIP3    H223065   4.615   6.365   7.958  1.9468  0.9862 -1.2469
 2165TIP3   OH223066   0.517   4.945   0.214  0.3729 -1.1491  0.3271
 2165TIP3    H123067   0.493   4.891   0.289  1.3146 -0.6872  0.9780
 2165TIP3    H223068   0.612   4.957   0.222  0.6484 -1.8327 -1.4309
 2166TIP3   OH223069   1.109   2.356   7.201 -0.1108  0.1744  0.1233
 2166TIP3    H123070   1.026   2.320   7.169  0.2617 -1.7565  1.1764
 2166TIP3    H223071   1.140   2.412   7.129 -1.3691 -0.6052 -1.0779
 2167TIP3   OH223072   5.628   4.396   2.462  0.0725  0.5482  0.8828
 2167TIP3    H123073   5.569   4.470   2.479 -0.7597  0.2576 -0.5748
 2167TIP3    H223074   5.615   4.377   2.369  1.1633 -0.6729  0.9673
 2168TIP3   OH223075   0.865   2.574   2.943  0.3435  0.1854  0.2462
 2168TIP3    H123076   0.893   2.656   2.982 -0.2514  0.6958 -0.3711
 2168TIP3    H223077   0.924   2.561   2.869 -0.3279  0.6994 -0.3949
 2169TIP3   OH223078   1.181   6.202   1.474 -0.4138 -0.1059 -0.2351
 2169TIP3    H123079   1.206   6.157   1.555  1.3709 -0.6834 -1.0601
 2169TIP3    H223080   1.222   6.151   1.405  0.4361  1.9547 -1.3214
 2170TIP3   OH223081   3.557   6.109   0.267 -0.0441  0.5780  0.2637
 2170TIP3    H123082   3.567   6.099   0.173 -1.5282  0.6553  0.0746
 2170TIP3    H223083   3.502   6.035   0.293  1.3950 -0.1833  1.2924
 2171TIP3   OH223084   5.834   3.823   0.129  0.4445 -0.1755 -0.2431
 2171TIP3    H123085   5.742   3.809   0.153  0.9505 -2.3623  0.6967
 2171TIP3    H223086   5.848   3.765   0.054  1.0078  0.3795 -0.5769
 2172TIP3   OH223087   0.621   0.213   8.759  0.8315 -0.0843 -0.3331
 2172TIP3    H123088   0.544   0.249   8.715  1.7742  0.2385 -1.8252
 2172TIP3    H223089   0.644   0.136   8.708  0.0902 -1.6236  1.5667
 2173TIP3   OH223090   6.383   4.874   9.286  0.0065 -0.2112  0.5641
 2173TIP3    H123091   6.309   4.874   9.224 -0.4579 -0.0277  1.1065
 2173TIP3    H223092   6.348   4.917   9.364  0.9201  0.5278  0.5744
 2174TIP3   OH223093   5.361   6.101   0.753 -0.1277  0.2660 -0.8308
 2174TIP3    H123094   5.444   6.061   0.725  0.1466  0.3721 -0.1905
 2174TIP3    H223095   5.385   6.158   0.826 -0.9604 -0.8319  0.3584
 2175TIP3   OH223096   3.963   0.361   7.509  0.2212  0.1476  0.5128
 2175TIP3    H123097   4.027   0.296   7.539  0.2257  0.7821  1.9552
 2175TIP3    H223098   4.011   0.417   7.450  0.5291 -0.4503  0.1879
 2176TIP3   OH223099   6.241   3.711   1.763 -0.0250  0.2530  0.0471
 2176TIP3    H123100   6.189   3.659   1.824  1.4051  0.0112  1.0975
 2176TIP3    H223101   6.288   3.773   1.818 -1.4668  2.5500 -1.1530
 2177TIP3   OH223102   0.463   4.108   1.531 -0.4512 -0.0634 -0.2358
 2177TIP3    H123103   0.531   4.048   1.501 -0.5404 -0.1569 -0.2560
 2177TIP3    H223104   0.508   4.190   1.548 -0.3508 -0.0961 -0.3435
 2178TIP3   OH223105   2.432   5.949   0.061 -0.6731 -0.6148 -0.5628
 2178TIP3    H123106   2.382   5.869   0.077 -1.9545  0.7080  3.3852
 2178TIP3    H223107   2.523   5.922   0.066 -1.0881 -1.9096  0.7349
 2179TIP3   OH223108   5.516   5.884   1.045 -0.4361 -0.2015 -0.2133
 2179TIP3    H123109   5.539   5.894   1.138  2.3122  0.4085 -0.8617
 2179TIP3    H223110   5.449   5.950   1.030 -0.5363  0.0603  1.2218
 2180TIP3   OH223111   1.292   2.712   8.945 -0.1070  0.3154  0.4143
 2180TIP3    H123112   1.330   2.718   8.857 -3.6116  0.9955 -1.2070
 2180TIP3    H223113   1.266   2.802   8.966 -1.3631 -0.1950  1.1224
 2181TIP3   OH223114   4.599   2.139   8.654  0.1903 -0.4506  0.3514
 2181TIP3    H123115   4.538   2.095   8.595 -2.1297  2.1113  0.6497
 2181TIP3    H223116   4.588   2.232   8.636  2.3667  0.2319  2.0781
 2182TIP3   OH223117   3.244   6.467   0.102  1.0027  0.5659  0.2519
 2182TIP3    H123118   3.305   6.467   0.176 -0.3762  0.2495  1.4199
 2182TIP3    H223119   3.226   6.375   0.085  2.5360  0.5263 -1.5886
 2183TIP3   OH223120   6.052   2.083   9.254  0.0993 -0.4280  0.5912
 2183TIP3    H123121   6.026   2.173   9.274 -4.5198 -1.5691  0.9818
 2183TIP3    H223122   6.051   2.038   9.338 -0.0233 -1.2923  0.1426
 2184TIP3   OH223123   6.233   1.848   8.087  0.1353 -0.0750  0.3656
 2184TIP3    H123124   6.217   1.833   7.994  1.7108 -0.3592  0.1103
 2184TIP3    H223125   6.239   1.943   8.095  3.4498 -0.0565 -0.5530
 2185TIP3   OH223126   5.709   5.163   7.100  0.0215 -0.5920  0.2428
 2185TIP3    H123127   5.753   5.134   7.021  1.6814 -0.4611  1.0832
 2185TIP3    H223128   5.737   5.253   7.112 -0.6599 -0.4270  0.6977
 2186TIP3   OH223129   5.337   0.073   7.280 -0.4436 -0.3423 -0.3278
 2186TIP3    H123130   5.285  -0.007   7.277 -0.7542 -0.4078  3.0983
 2186TIP3    H223131   5.427   0.043   7.289 -0.4344 -0.2972 -0.2686
 2187TIP3   OH223132   5.129   6.299   6.442 -0.4325 -0.3155  0.4029
 2187TIP3    H123133   5.130   6.395   6.446 -1.1526 -0.2263 -0.9330
 2187TIP3    H223134   5.052   6.279   6.388  0.9643 -1.5564 -1.2220
 2188TIP3   OH223135   3.808   0.143   0.791  0.9505 -0.1372 -0.4891
 2188TIP3    H123136   3.817   0.148   0.695 -1.0897 -1.8696 -0.8585
 2188TIP3    H223137   3.720   0.176   0.808  1.9192  1.8303  1.0593
 2189TIP3   OH223138   0.609   5.557   0.436  0.0528  0.0242  0.2480
 2189TIP3    H123139   0.518   5.574   0.412 -0.4973 -0.6227  1.8057
 2189TIP3    H223140   0.626   5.468   0.405 -0.5153 -0.6376  1.7579
 2190TIP3   OH223141   3.283   4.156   1.158  0.1484  0.1412  0.2008
 2190TIP3    H123142   3.363   4.119   1.195 -0.0533  0.3059  0.8147
 2190TIP3    H223143   3.277   4.117   1.071 -1.1131 -2.8695  1.5067
 2191TIP3   OH223144   3.136   5.156   8.314  0.5414  0.1890 -0.0506
 2191TIP3    H123145   3.043   5.171   8.333  0.2460 -0.7535 -0.6749
 2191TIP3    H223146   3.171   5.243   8.296 -0.4763  0.4375 -0.9084
 2192TIP3   OH223147   0.036   5.936   7.294 -0.1891 -0.4253  0.4355
 2192TIP3    H123148   0.014   5.903   7.207 -0.2837 -0.7220  0.5714
 2192TIP3    H223149   0.034   6.031   7.285 -1.0216 -0.4486  0.3162
 2193TIP3   OH223150   2.147   1.357   7.694 -0.3438  0.5275  0.0605
 2193TIP3    H123151   2.175   1.291   7.630 -0.5508 -0.2377  0.7355
 2193TIP3    H223152   2.052   1.364   7.682 -0.0424  2.5692 -1.7131
 2194TIP3   OH223153   1.599   0.085   2.387 -0.0542  0.1365 -0.4333
 2194TIP3    H123154   1.677   0.029   2.387 -0.7717 -0.8852 -0.7954
 2194TIP3    H223155   1.533   0.034   2.342 -1.2707  0.5533  0.8193
 2195TIP3   OH223156   1.758   3.071   7.023 -0.3299  0.6748  0.0617
 2195TIP3    H123157   1.782   2.980   7.040 -0.5452  0.6368  0.1735
 2195TIP3    H223158   1.826   3.123   7.065 -0.5715  0.5718  0.5933
 2196TIP3   OH223159   3.826   1.537   1.615 -0.3382  0.1374 -0.1567
 2196TIP3    H123160   3.761   1.608   1.609 -0.7078 -0.1098  0.7441
 2196TIP3    H223161   3.909   1.582   1.632 -0.2511  0.4575 -1.3347
 2197TIP3   OH223162   3.648   3.349   2.090  0.2424  0.2166 -0.1766
 2197TIP3    H123163   3.678   3.439   2.083  0.7672 -0.0182 -1.0331
 2197TIP3    H223164   3.592   3.348   2.168 -0.0655  1.3563 -0.3782
 2198TIP3   OH223165   5.152   4.694   1.158  0.4337 -0.0222 -0.4264
 2198TIP3    H123166   5.066   4.651   1.159  0.3646  0.0701 -1.5027
 2198TIP3    H223167   5.174   4.704   1.251  0.8084 -3.0975 -0.0569
 2199TIP3   OH223168   0.369   2.150   6.369 -0.6293 -0.0823 -0.4067
 2199TIP3    H123169   0.284   2.192   6.377 -0.3046  0.3332  1.6229
 2199TIP3    H223170   0.422   2.211   6.318 -0.1181  2.2809  2.6119
 2200TIP3   OH223171   3.956   3.531   7.047 -0.2963  0.4745 -0.0072
 2200TIP3    H123172   3.879   3.588   7.051  0.3359  1.2930  0.9008
 2200TIP3    H223173   4.030   3.591   7.046  0.3456 -0.2880 -1.3369
 2201TIP3   OH223174   4.260   4.901   1.916 -0.6123 -0.2978  0.4504
 2201TIP3    H123175   4.216   4.924   1.998 -0.2675 -2.8393  1.4404
 2201TIP3    H223176   4.204   4.833   1.878  0.7721 -1.2614  0.0862
 2202TIP3   OH223177   4.253   4.975   8.748  0.1336  0.2427 -0.6132
 2202TIP3    H123178   4.158   4.967   8.759  0.4247 -0.8054  1.5602
 2202TIP3    H223179   4.274   5.060   8.787  0.3649 -0.6695  1.3585
 2203TIP3   OH223180   4.700   2.642   1.056 -0.0447  0.1636 -0.3508
 2203TIP3    H123181   4.614   2.607   1.078  1.1791 -1.7058  1.9539
 2203TIP3    H223182   4.748   2.567   1.021  1.6000  0.2969  1.4526
 2204TIP3   OH223183   5.289   4.398   1.826  0.0351 -0.6669  0.1684
 2204TIP3    H123184   5.260   4.413   1.736  3.1398  0.4811 -0.7726
 2204TIP3    H223185   5.281   4.483   1.869  2.9025  0.0692 -0.5188
 2205TIP3   OH223186   0.036   3.024   7.186 -0.3409  0.0567  0.6431
 2205TIP3    H123187  -0.011   3.060   7.111  0.0929 -0.0951  0.2921
 2205TIP3    H223188   0.068   3.101   7.233 -1.7139  0.1923  1.4069
 2206TIP3   OH223189   2.271   1.945   3.106 -0.3754  0.1167  0.1186
 2206TIP3    H123190   2.188   1.948   3.059 -1.0633  0.6082  1.3183
 2206TIP3    H223191   2.327   2.007   3.060 -0.0887 -1.3842 -1.6997
 2207TIP3   OH223192   6.302   4.955   8.148 -0.6458 -0.1462 -0.0618
 2207TIP3    H123193   6.325   4.986   8.060  0.1093 -0.8679 -0.1349
 2207TIP3    H223194   6.348   5.015   8.208  1.6550 -1.6261 -0.2039
 2208TIP3   OH223195   0.807   4.275   2.101 -0.2437 -0.1691  0.6121
 2208TIP3    H123196   0.850   4.312   2.178  0.6319 -1.5544  0.8288
 2208TIP3    H223197   0.850   4.190   2.089 -1.9543 -0.9720 -0.0471
 2209TIP3   OH223198   1.569   1.311   2.391 -0.0243 -0.4099 -0.2529
 2209TIP3    H123199   1.653   1.271   2.413 -0.1920 -0.3962  0.4531
 2209TIP3    H223200   1.576   1.335   2.299  0.4279 -1.1906 -0.4266
 2210TIP3   OH223201   3.567   1.444   7.685 -0.0292 -0.4779 -0.1586
 2210TIP3    H123202   3.591   1.508   7.618  2.1167 -1.4198 -0.3617
 2210TIP3    H223203   3.553   1.363   7.637  0.7387 -0.9771  0.4361
 2211TIP3   OH223204   4.102   4.153   2.586  0.3037  0.1459 -0.1099
 2211TIP3    H123205   4.193   4.125   2.576  0.6329  0.6069  1.3674
 2211TIP3    H223206   4.108   4.246   2.606 -0.5334  0.2749 -0.4091
 2212TIP3   OH223207   5.954   4.630   8.729  0.5732 -0.5008  0.4888
 2212TIP3    H123208   5.932   4.720   8.752  0.5662 -0.2263 -0.5583
 2212TIP3    H223209   5.956   4.584   8.813 -1.3770  0.0318  0.8870
 2213TIP3   OH223210   4.282   6.113   8.204  0.2996  0.3048  0.2494
 2213TIP3    H123211   4.233   6.195   8.192 -0.8762 -0.5082 -0.7434
 2213TIP3    H223212   4.373   6.138   8.190 -0.0758  1.3585 -0.5035
 2214TIP3   OH223213   0.530   1.908   1.040 -0.0178 -0.3303 -0.1914
 2214TIP3    H123214   0.440   1.879   1.057  0.1506 -1.2738 -0.8301
 2214TIP3    H223215   0.575   1.829   1.010  0.9861  0.1728 -0.0320
 2215TIP3   OH223216   0.747   5.182   7.508  0.8494  0.0830 -0.3248
 2215TIP3    H123217   0.666   5.166   7.458 -0.9342  2.5347  1.5522
 2215TIP3    H223218   0.721   5.173   7.600  2.9198  0.2128  0.3277
 2216TIP3   OH223219   5.185   5.330   8.486 -0.5022 -0.4500  0.2173
 2216TIP3    H123220   5.105   5.375   8.459 -0.1318  0.4455  0.5767
 2216TIP3    H223221   5.172   5.315   8.580  0.6076  1.6138  0.7662
 2217TIP3   OH223222   2.835   5.749   0.457  0.3007 -0.7649  0.1583
 2217TIP3    H123223   2.843   5.782   0.368 -0.3409 -1.9604 -0.3641
 2217TIP3    H223224   2.741   5.747   0.473  0.2626 -2.9285 -0.0863
 2218TIP3   OH223225   0.269   0.770   0.743  0.4741  0.0980  0.1428
 2218TIP3    H123226   0.283   0.726   0.659  0.4286 -0.1886  0.2840
 2218TIP3    H223227   0.196   0.830   0.727 -0.4287 -0.9339  0.3377
 2219TIP3   OH223228   5.972   5.262   8.721 -0.2478  0.2507  0.5411
 2219TIP3    H123229   5.905   5.225   8.663  0.7035 -1.4477  0.4420
 2219TIP3    H223230   6.053   5.257   8.670  0.1894  1.0016  1.1453
 2220TIP3   OH223231   1.279   4.843   0.326 -0.2155  0.1646 -0.3722
 2220TIP3    H123232   1.339   4.803   0.389 -0.7332  0.7512  0.5109
 2220TIP3    H223233   1.317   4.929   0.309  0.6545 -0.4862 -1.9259
 2221TIP3   OH223234   1.408   5.674   7.150  0.1519 -0.1686  0.2437
 2221TIP3    H123235   1.334   5.709   7.100 -0.4621 -1.7275  0.0008
 2221TIP3    H223236   1.485   5.700   7.099 -0.0759  2.4710  1.0980
 2222TIP3   OH223237   4.922   2.274   6.929 -0.0143 -0.5228  0.0269
 2222TIP3    H123238   4.947   2.360   6.895  2.0990 -1.2664 -0.4508
 2222TIP3    H223239   4.995   2.217   6.905 -1.1876 -2.3715  0.6898
 2223TIP3   OH223240   0.194   3.870   2.170  0.3361 -0.6102  0.0476
 2223TIP3    H123241   0.222   3.795   2.116 -0.3322 -0.5914 -0.3350
 2223TIP3    H223242   0.118   3.905   2.124 -0.1528 -0.4914  0.9215
 2224TIP3   OH223243   6.053   6.302   7.704  0.1566  0.0711 -0.0769
 2224TIP3    H123244   5.965   6.339   7.701 -1.0508 -2.4923 -3.1836
 2224TIP3    H223245   6.112   6.378   7.704 -2.0117  1.8553  0.7361
 2225TIP3   OH223246   2.316   4.212   1.581 -0.2771 -0.1497  0.0583
 2225TIP3    H123247   2.284   4.122   1.583  0.9340 -0.8087 -3.6373
 2225TIP3    H223248   2.411   4.204   1.575 -0.1518  1.3573 -0.4635
 2226TIP3   OH223249   0.241   4.268   7.837  0.2948 -0.3779  0.0509
 2226TIP3    H123250   0.155   4.225   7.834 -0.0848  0.3217  0.7661
 2226TIP3    H223251   0.270   4.268   7.745 -0.5792 -0.3943 -0.2363
 2227TIP3   OH223252   3.699   4.885   1.687  0.3151  0.4912 -0.2591
 2227TIP3    H123253   3.697   4.855   1.778  0.1311  0.1215 -0.3826
 2227TIP3    H223254   3.792   4.895   1.667  0.3321  1.5604  0.2873
 2228TIP3   OH223255   2.993   4.149   6.855 -0.4736  0.1223  0.1832
 2228TIP3    H123256   2.966   4.099   6.933  0.1652 -0.4733  0.0289
 2228TIP3    H223257   3.087   4.164   6.868 -0.5624  0.8679 -0.0123
 2229TIP3   OH223258   5.496   2.723   6.730 -0.6950 -0.0760 -0.3718
 2229TIP3    H123259   5.543   2.801   6.761 -1.4117 -0.5077  2.0645
 2229TIP3    H223260   5.565   2.662   6.703 -0.0728  0.9288 -1.0804
 2230TIP3   OH223261   2.467   6.073   1.980  0.2274  0.4713 -0.3749
 2230TIP3    H123262   2.549   6.025   1.969  1.0173  1.4330  0.9732
 2230TIP3    H223263   2.485   6.161   1.946  0.5707  1.4177  2.0652
 2231TIP3   OH223264   5.745   5.727   8.702 -0.2503  0.0227  0.3620
 2231TIP3    H123265   5.799   5.664   8.750  1.6584  0.5838 -0.9376
 2231TIP3    H223266   5.698   5.673   8.638 -1.5200 -0.4994  1.6598
 2232TIP3   OH223267   2.402   1.425   2.446 -0.5959  0.5357 -0.4595
 2232TIP3    H123268   2.392   1.520   2.453  0.7415  0.8202 -1.9334
 2232TIP3    H223269   2.495   1.412   2.426 -0.9750 -1.0212 -1.3665
 2233TIP3   OH223270   4.828   5.190   8.648  0.3132 -0.3672  0.6849
 2233TIP3    H123271   4.754   5.243   8.678 -0.4635 -1.4566  0.7546
 2233TIP3    H223272   4.788   5.122   8.594  1.5164  0.5624 -1.5265
 2234TIP3   OH223273   5.667   1.991   2.547  0.0528  0.7932 -0.0657
 2234TIP3    H123274   5.600   1.922   2.554  2.6098 -1.6602  2.8910
 2234TIP3    H223275   5.685   1.996   2.453 -2.1716 -0.5517 -0.6538
 2235TIP3   OH223276   1.277   4.356   1.684  0.2401  0.4732 -0.1190
 2235TIP3    H123277   1.201   4.306   1.713  1.9083 -1.1943  1.7467
 2235TIP3    H223278   1.346   4.290   1.674  1.4664  1.9201 -1.7387
 2236TIP3   OH223279   6.403   4.504   1.996  0.6584 -0.7043 -0.0108
 2236TIP3    H123280   6.341   4.443   2.036  0.8437 -0.2341  1.0192
 2236TIP3    H223281   6.398   4.484   1.902 -1.6541 -0.1431 -0.0735
 2237TIP3   OH223282   1.207   2.676   1.100 -0.4998  0.6200  0.4808
 2237TIP3    H123283   1.253   2.633   1.172 -1.3922  1.1142  1.3779
 2237TIP3    H223284   1.136   2.725   1.143 -0.3422  1.8755 -0.6360
 2238TIP3   OH223285   4.277   1.034   1.882 -0.3596 -0.3973 -0.0780
 2238TIP3    H123286   4.367   1.061   1.899  0.0732 -2.1613  0.7133
 2238TIP3    H223287   4.227   1.116   1.879  1.8605  1.1354 -5.3391
 2239TIP3   OH223288   2.556   2.259   8.596 -0.3680  0.2988  0.0078
 2239TIP3    H123289   2.507   2.330   8.555 -0.2981  0.4167  0.1259
 2239TIP3    H223290   2.598   2.299   8.672  0.2027  0.2886 -0.2893
 2240TIP3   OH223291   5.849   2.258   0.579  0.6370  0.3162  0.4410
 2240TIP3    H123292   5.833   2.339   0.530  2.3480 -0.7754 -2.1028
 2240TIP3    H223293   5.916   2.283   0.643 -1.1625  1.5995  1.9644
 2241TIP3   OH223294   3.495   3.762   7.323  0.4894 -0.1924  0.3073
 2241TIP3    H123295   3.494   3.697   7.394 -0.2177 -0.5620 -0.0308
 2241TIP3    H223296   3.585   3.760   7.291  0.4206 -1.1961  0.1414
 2242TIP3   OH223297   4.650   6.107   8.715  0.1004  0.1981 -0.4539
 2242TIP3    H123298   4.654   6.012   8.706  1.6416  0.2667 -0.6491
 2242TIP3    H223299   4.690   6.125   8.801 -2.9162  0.4976  1.0356
 2243TIP3   OH223300   2.129   3.989   0.237  0.1010  0.0058  0.3427
 2243TIP3    H123301   2.054   3.991   0.178 -1.2822 -0.1617  2.0303
 2243TIP3    H223302   2.165   3.900   0.228 -0.0127  0.0204 -0.3040
 2244TIP3   OH223303   1.519   2.123   2.033  0.0531 -0.1681  0.4380
 2244TIP3    H123304   1.555   2.204   1.998 -0.6651  0.1902  0.5122
 2244TIP3    H223305   1.544   2.122   2.125 -0.3215  0.1904  0.5442
 2245TIP3   OH223306   5.400   1.228   7.075 -0.1083  0.8289 -0.2336
 2245TIP3    H123307   5.352   1.285   7.015  0.8956  1.8152 -0.1390
 2245TIP3    H223308   5.336   1.162   7.102 -1.1129  1.5115 -0.8768
 2246TIP3   OH223309   6.421   3.958   8.669 -0.2953 -0.1826 -0.5853
 2246TIP3    H123310   6.429   3.997   8.756 -0.3131  0.2054 -0.7538
 2246TIP3    H223311   6.404   3.865   8.685  0.0124 -0.1689 -0.1808
 2247TIP3   OH223312   2.552   0.345   1.220 -0.1182 -0.7810  0.6845
 2247TIP3    H123313   2.529   0.438   1.225 -0.0141 -0.7762  1.1720
 2247TIP3    H223314   2.476   0.304   1.180 -1.0269 -0.7735  2.2969
 2248TIP3   OH223315   2.111   6.056   0.633 -0.1692  0.0799 -0.0308
 2248TIP3    H123316   2.191   6.091   0.670  0.7272 -2.3955  0.5541
 2248TIP3    H223317   2.097   6.107   0.553  2.5461 -0.0263 -0.6753
 2249TIP3   OH223318   0.022   5.935   9.005 -0.3258 -0.3711 -0.5711
 2249TIP3    H123319   0.082   5.918   8.932  1.4632 -0.0548  0.7369
 2249TIP3    H223320   0.010   5.850   9.047  0.9272 -0.1075  0.3779
 2250TIP3   OH223321   2.015   0.476   9.366  0.1382 -0.3798  0.4084
 2250TIP3    H123322   2.036   0.504   9.277  1.3709  0.4765  0.9420
 2250TIP3    H223323   2.100   0.471   9.410 -0.3414 -1.9252  1.2318
 2251TIP3   OH223324   2.924   1.497   2.262 -0.2671 -0.4726  0.5179
 2251TIP3    H123325   3.017   1.503   2.238 -0.7818 -0.5506 -1.6808
 2251TIP3    H223326   2.900   1.586   2.287  0.8590 -0.8283  3.2675
 2252TIP3   OH223327   1.085   4.887   0.742  0.4096 -0.1387 -0.1144
 2252TIP3    H123328   1.049   4.821   0.683 -0.3558  0.0234  0.1585
 2252TIP3    H223329   1.161   4.844   0.782 -0.2307 -0.9594  0.2507
 2253TIP3   OH223330   4.941   1.249   7.325 -0.0586 -0.1879 -0.0201
 2253TIP3    H123331   4.922   1.305   7.400  1.2688 -2.6041  2.2802
 2253TIP3    H223332   4.856   1.232   7.285 -1.1088 -0.4800  2.2190
 2254TIP3   OH223333   0.924   1.840   7.227  1.0573  0.2339 -0.5103
 2254TIP3    H123334   0.887   1.926   7.245  2.6759  0.4964  2.0882
 2254TIP3    H223335   0.861   1.779   7.265  2.2721  0.5971  2.3217
 2255TIP3   OH223336   0.110   6.105   1.541 -0.0840 -0.2645  1.0638
 2255TIP3    H123337   0.037   6.078   1.484  0.6283 -1.2479  0.5846
 2255TIP3    H223338   0.110   6.040   1.611  1.3785 -1.3161  0.1403
 2256TIP3   OH223339   2.360   4.137   0.159  0.1479  0.7851 -0.3178
 2256TIP3    H123340   2.318   4.090   0.231  0.3404  0.8533 -0.1616
 2256TIP3    H223341   2.287   4.174   0.109  0.0587  1.9724  0.6644
 2257TIP3   OH223342   0.974   6.017   0.127 -0.3093 -0.0084  0.2990
 2257TIP3    H123343   1.028   5.949   0.167 -0.4401 -0.6888 -0.6300
 2257TIP3    H223344   1.021   6.040   0.047 -1.2311 -0.4047 -0.3758
 2258TIP3   OH223345   1.327   5.137   8.305  0.3541  0.2455  0.7191
 2258TIP3    H123346   1.362   5.057   8.344 -0.3721 -0.4040  0.0842
 2258TIP3    H223347   1.397   5.201   8.315  1.8897 -1.0828 -0.7973
 2259TIP3   OH223348   0.070   3.075   8.804 -0.1281 -0.4828 -0.3549
 2259TIP3    H123349  -0.025   3.064   8.817  0.0888 -1.2390  0.7293
 2259TIP3    H223350   0.104   3.091   8.892  0.7498 -0.1065 -0.7525
 2260TIP3   OH223351   4.793   3.603   7.368 -0.5476 -0.1955 -0.1354
 2260TIP3    H123352   4.774   3.509   7.367 -0.0720 -0.2961 -1.3908
 2260TIP3    H223353   4.878   3.611   7.324  0.8985  0.5559  2.5586
 2261TIP3   OH223354   2.342   0.326   1.560 -0.1188 -0.4798 -0.4638
 2261TIP3    H123355   2.431   0.314   1.525 -0.2987 -0.8896 -0.7909
 2261TIP3    H223356   2.289   0.262   1.512 -0.6744  0.0600 -0.5783
 2262TIP3   OH223357   0.389   3.521   7.839  0.3792  0.0384  0.3835
 2262TIP3    H123358   0.476   3.481   7.833 -0.6732 -2.2537 -0.8256
 2262TIP3    H223359   0.366   3.513   7.932  1.0374 -0.2869  0.5244
 2263TIP3   OH223360   2.647   1.420   1.200  0.5637  0.1526 -0.5109
 2263TIP3    H123361   2.571   1.396   1.252  0.4615  2.1524  0.3540
 2263TIP3    H223362   2.627   1.387   1.112 -1.5716  1.0702 -0.4356
 2264TIP3   OH223363   3.109   2.137   2.329  0.4466  0.1926 -0.5247
 2264TIP3    H123364   3.121   2.117   2.422 -0.4939  0.2357 -0.3887
 2264TIP3    H223365   3.015   2.154   2.319  0.7992  2.1480 -1.0881
 2265TIP3   OH223366   5.892   3.435   9.182  0.1993  0.6301 -0.0283
 2265TIP3    H123367   5.813   3.387   9.156  1.6842 -0.3549 -3.2502
 2265TIP3    H223368   5.927   3.384   9.255 -2.0220  1.0831  1.4828
 2266TIP3   OH223369   2.110   1.427   1.864  0.3710  0.0533 -0.3755
 2266TIP3    H123370   2.043   1.475   1.913  0.3370  0.8679 -1.2030
 2266TIP3    H223371   2.063   1.393   1.788  0.3776 -1.3679  0.2207
 2267TIP3   OH223372   4.645   3.178   1.160  0.2375  0.2908 -0.1917
 2267TIP3    H123373   4.651   3.100   1.215 -0.7106  0.1187 -0.3064
 2267TIP3    H223374   4.563   3.219   1.187  1.6154  2.2865  1.1862
 2268TIP3   OH223375   2.520   3.607   8.593 -0.2972  0.4195  0.2014
 2268TIP3    H123376   2.495   3.514   8.593 -1.2730  0.6631  0.6676
 2268TIP3    H223377   2.517   3.633   8.501  0.3048 -0.0919  0.0350
 2269TIP3   OH223378   6.237   3.034   1.230  0.3887  0.3511 -0.2523
 2269TIP3    H123379   6.187   3.077   1.161  1.1329 -0.9120 -1.6381
 2269TIP3    H223380   6.328   3.041   1.202  0.5723 -1.7912 -0.4026
 2270TIP3   OH223381   1.366   5.746   2.920  0.8952  0.0899 -0.4697
 2270TIP3    H123382   1.392   5.783   2.836 -0.2297  2.1620  0.0345
 2270TIP3    H223383   1.405   5.658   2.921  2.4275  0.6941 -2.3663
 2271TIP3   OH223384   1.635   4.470   7.120  0.0945 -0.0725  0.5529
 2271TIP3    H123385   1.548   4.446   7.088  0.3220 -2.6106  1.5763
 2271TIP3    H223386   1.619   4.534   7.189 -0.7565  1.0696 -0.6442
 2272TIP3   OH223387   5.471   0.473   1.816  0.0088 -0.5002  0.4491
 2272TIP3    H123388   5.514   0.554   1.844 -0.7065  0.3529 -0.8158
 2272TIP3    H223389   5.531   0.403   1.844  1.1000  0.5131  0.7240
 2273TIP3   OH223390   6.295   5.099   7.229 -0.7647  0.1632  0.1071
 2273TIP3    H123391   6.280   5.063   7.142  1.2532  0.6008 -0.4596
 2273TIP3    H223392   6.338   5.183   7.214 -0.1183  0.1163  1.5222
 2274TIP3   OH223393   6.087   4.990   2.385 -0.2506 -0.1014 -0.3285
 2274TIP3    H123394   6.135   4.908   2.381 -2.6466 -1.5973 -0.2346
 2274TIP3    H223395   6.124   5.043   2.314 -0.6259 -2.4668 -2.4469
 2275TIP3   OH223396   5.671   4.021   8.850  0.1252 -0.3643  0.2237
 2275TIP3    H123397   5.631   4.069   8.922 -0.4969 -1.1783  0.4272
 2275TIP3    H223398   5.648   4.072   8.772 -1.0580 -0.6315  0.3714
 2276TIP3   OH223399   2.107   2.134   0.517 -0.3068  0.0321 -0.3125
 2276TIP3    H123400   2.040   2.198   0.542  0.1995  1.6185 -2.6352
 2276TIP3    H223401   2.060   2.051   0.509 -2.3327  1.2561 -2.7783
 2277TIP3   OH223402   4.810   6.138   8.929  0.2640 -0.2168 -0.3769
 2277TIP3    H123403   4.864   6.062   8.951 -0.5197 -0.6495  0.1151
 2277TIP3    H223404   4.792   6.180   9.013  0.6661  0.5030 -0.6444
 2278TIP3   OH223405   6.200   5.679   2.133 -0.1914  0.1709  0.0461
 2278TIP3    H123406   6.232   5.746   2.194 -0.6522  0.9761 -0.5779
 2278TIP3    H223407   6.141   5.625   2.185 -0.8661  1.0714  0.2392
 2279TIP3   OH223408   2.924   3.926   7.298 -0.0592 -0.0337  0.2842
 2279TIP3    H123409   2.847   3.955   7.347  0.0288  0.1738  0.3036
 2279TIP3    H223410   2.964   4.007   7.267  0.4338 -0.1101  0.7029
 2280TIP3   OH223411   2.174   1.454   9.268 -0.3104 -0.3971  0.4044
 2280TIP3    H123412   2.206   1.491   9.351 -0.8373  0.2134  0.3392
 2280TIP3    H223413   2.111   1.388   9.294 -0.5978 -0.0912  0.4885
 2281TIP3   OH223414   4.898   5.863   0.848 -0.3356  0.4106  0.2310
 2281TIP3    H123415   4.987   5.887   0.873 -0.6994  1.7932  0.2712
 2281TIP3    H223416   4.850   5.946   0.846 -1.6263 -0.3020  0.2041
 2282TIP3   OH223417   2.465   4.972   7.090  0.2146 -0.4173 -0.3747
 2282TIP3    H123418   2.436   4.903   7.031  0.1423  1.7642 -3.1272
 2282TIP3    H223419   2.551   4.945   7.120  0.6543 -1.2087 -2.2753
 2283TIP3   OH223420   5.936   0.971   1.707 -0.1691  0.2998 -0.1266
 2283TIP3    H123421   6.008   1.022   1.670 -1.5615  1.1708 -1.8626
 2283TIP3    H223422   5.942   0.886   1.663  0.3871  0.0162  0.4943
 2284TIP3   OH223423   0.075   2.189   6.795 -0.0038  0.3988  0.1906
 2284TIP3    H123424   0.006   2.151   6.739 -1.3131  1.6225  0.9039
 2284TIP3    H223425   0.067   2.142   6.878  1.8286 -1.2995 -0.5157
 2285TIP3   OH223426   5.829   4.912   7.860  0.3046 -0.1695  0.1659
 2285TIP3    H123427   5.778   4.970   7.803 -0.9188  0.3507  1.7374
 2285TIP3    H223428   5.779   4.908   7.941  1.6562 -1.4532  0.9792
 2286TIP3   OH223429   0.723   4.101   2.465  0.3444  0.0457  0.0579
 2286TIP3    H123430   0.766   4.023   2.500  0.7684  0.6808  1.0092
 2286TIP3    H223431   0.709   4.157   2.542 -0.1571  0.8056 -0.5697
 2287TIP3   OH223432   3.679   2.432   2.107  0.6224 -0.0877  0.1121
 2287TIP3    H123433   3.644   2.521   2.102  3.8372  1.2407 -1.7159
 2287TIP3    H223434   3.624   2.380   2.049  0.8201  1.5799 -1.6373
 2288TIP3   OH223435   0.056   4.841   2.597 -0.4778  0.3509 -0.4943
 2288TIP3    H123436   0.107   4.897   2.655 -1.7016  1.7102 -0.6677
 2288TIP3    H223437  -0.029   4.833   2.640  0.0639 -2.5949  0.2260
 2289TIP3   OH223438   1.840   4.485   2.394  0.5369  0.2866 -0.0964
 2289TIP3    H123439   1.860   4.455   2.305  1.3382 -0.0314  0.1745
 2289TIP3    H223440   1.758   4.441   2.417  1.8728 -2.0900  0.4327
 2290TIP3   OH223441   1.503   1.062   2.530 -0.3077  0.0395  0.1263
 2290TIP3    H123442   1.445   1.124   2.575 -0.4594 -0.9067  1.2798
 2290TIP3    H223443   1.543   1.114   2.461 -1.1906  1.1731  0.4209
 2291TIP3   OH223444   3.305   1.122   9.010  0.2509 -0.2931 -0.0237
 2291TIP3    H123445   3.384   1.093   9.057 -0.1407 -1.3583  0.0095
 2291TIP3    H223446   3.281   1.046   8.956 -0.7658  0.0189 -0.0195
 2292TIP3   OH223447   1.140   2.997   1.591 -0.1485  0.1774 -0.4135
 2292TIP3    H123448   1.218   2.950   1.561  0.9097  1.8152 -0.3890
 2292TIP3    H223449   1.124   2.963   1.679  0.2888 -0.4804 -0.5812
 2293TIP3   OH223450   4.984   3.659   7.183 -0.2035 -0.2450 -0.4972
 2293TIP3    H123451   4.998   3.600   7.109 -0.5507 -1.6365  0.4805
 2293TIP3    H223452   5.019   3.743   7.155  3.1663 -1.6079 -0.9113
 2294TIP3   OH223453   0.764   3.003   1.966  0.3505  0.0107 -0.3352
 2294TIP3    H123454   0.670   2.985   1.966  0.6726 -2.1528 -1.9102
 2294TIP3    H223455   0.774   3.074   1.903 -0.3103  1.0831  0.7280
 2295TIP3   OH223456   5.209   0.230   1.904 -0.1333 -0.0605 -0.6607
 2295TIP3    H123457   5.189   0.314   1.946 -1.6547 -1.4587  1.6308
 2295TIP3    H223458   5.140   0.218   1.840 -1.1141 -0.4598  0.4462
 2296TIP3   OH223459   5.188   2.637   7.333 -0.5099 -0.2882 -0.3591
 2296TIP3    H123460   5.156   2.676   7.252  0.9700 -0.1343 -0.9010
 2296TIP3    H223461   5.211   2.713   7.388 -1.8307 -0.3828  0.3776
 2297TIP3   OH223462   0.783   0.245   0.062 -0.6846 -0.3228 -0.2384
 2297TIP3    H123463   0.748   0.254  -0.027  0.3190 -1.6101 -0.8065
 2297TIP3    H223464   0.838   0.322   0.073 -1.9372  0.5910 -0.1576
 2298TIP3   OH223465   1.756   3.727   8.307 -0.3839 -0.2249 -0.1588
 2298TIP3    H123466   1.779   3.809   8.262  1.2266 -0.4305  0.2226
 2298TIP3    H223467   1.663   3.736   8.327 -0.0908  1.8505  0.5495
 2299TIP3   OH223468   4.246   5.355   2.644  0.3084  0.1511  0.0543
 2299TIP3    H123469   4.265   5.359   2.738  1.2327 -0.4609 -0.0973
 2299TIP3    H223470   4.293   5.278   2.613  0.6012  0.7549 -1.0597
 2300TIP3   OH223471   3.489   4.893   2.112 -0.5113  0.0020 -0.0968
 2300TIP3    H123472   3.446   4.809   2.127 -0.4164 -0.2431 -1.0706
 2300TIP3    H223473   3.419   4.958   2.122 -0.9946 -0.3419 -1.0363
 2301TIP3   OH223474   1.683   4.454   1.506 -0.7157 -0.0152  0.6087
 2301TIP3    H123475   1.634   4.374   1.488  1.5535 -1.4707  0.4912
 2301TIP3    H223476   1.695   4.494   1.420 -0.5278 -0.3913  0.4552
 2302TIP3   OH223477   0.733   1.461   8.723 -0.1734  0.1632  0.1272
 2302TIP3    H123478   0.645   1.424   8.715 -0.3087  0.5354 -0.1581
 2302TIP3    H223479   0.785   1.391   8.761 -0.5479 -0.1328  0.1023
 2303TIP3   OH223480   6.326   0.788   8.419 -0.2487 -0.1649 -0.1738
 2303TIP3    H123481   6.357   0.810   8.331 -1.8602  3.6458  0.0431
 2303TIP3    H223482   6.234   0.765   8.407 -0.1473 -0.9414  0.4144
 2304TIP3   OH223483   1.674   5.757   6.302  0.1928 -0.5266 -0.4625
 2304TIP3    H123484   1.586   5.794   6.297  0.0682 -0.8980 -1.0822
 2304TIP3    H223485   1.729   5.822   6.259  0.3246 -0.0169  0.4391
 2305TIP3   OH223486   0.097   5.072   0.424  0.2339 -0.3644 -0.1098
 2305TIP3    H123487   0.166   5.124   0.465 -1.4063  1.1214  0.9125
 2305TIP3    H223488   0.033   5.137   0.393 -0.6375 -1.6701 -1.1850
 2306TIP3   OH223489   5.996   4.990   0.723 -0.4892 -0.1316 -0.2860
 2306TIP3    H123490   5.947   5.071   0.743 -0.0388 -0.2519  1.4845
 2306TIP3    H223491   5.971   4.930   0.793  1.4292 -0.5238  0.1151
 2307TIP3   OH223492   0.257   4.910   6.696  0.4006 -0.2028 -0.3226
 2307TIP3    H123493   0.224   4.978   6.754  1.0075  1.5571 -1.9495
 2307TIP3    H223494   0.327   4.868   6.747  1.5172  1.8744 -0.0217
 2308TIP3   OH223495   0.264   5.352   2.558 -0.2099 -0.1554 -0.0600
 2308TIP3    H123496   0.337   5.411   2.580  0.3839 -0.5691 -0.8622
 2308TIP3    H223497   0.187   5.409   2.557 -0.3288 -0.0936  3.0568
 2309TIP3   OH223498   5.006   1.962   1.134  0.4169  0.5769 -0.5343
 2309TIP3    H123499   5.031   1.928   1.220  0.1905 -2.7795 -1.6391
 2309TIP3    H223500   4.910   1.960   1.135  0.2349  3.7623  0.1723
 2310TIP3   OH223501   4.623   3.458   0.408 -0.2384  0.2262  0.3539
 2310TIP3    H123502   4.575   3.414   0.478 -0.7753 -0.5759 -0.4960
 2310TIP3    H223503   4.586   3.546   0.406  0.4328  0.5577  1.6801
 2311TIP3   OH223504   5.282   4.385   9.156  0.2625 -0.0345  0.2079
 2311TIP3    H123505   5.187   4.377   9.162  0.1326  0.5149 -0.8853
 2311TIP3    H223506   5.309   4.415   9.243 -0.5523 -0.2501  0.5427
 2312TIP3   OH223507   2.297   3.199   1.757 -0.1281 -0.6271 -0.3648
 2312TIP3    H123508   2.265   3.110   1.743  0.3461 -0.7672 -0.5990
 2312TIP3    H223509   2.378   3.187   1.806 -0.3613 -0.2866  0.1072
 2313TIP3   OH223510   6.073   2.110   8.330  0.2058  0.2779 -0.0139
 2313TIP3    H123511   6.009   2.144   8.268 -0.8190  1.3017  1.5305
 2313TIP3    H223512   6.052   2.017   8.338 -0.2121  0.3234 -0.5309
 2314TIP3   OH223513   2.567   2.383   7.018 -0.3311  0.9689  0.5305
 2314TIP3    H123514   2.568   2.288   7.029 -0.6741  0.8576 -0.3336
 2314TIP3    H223515   2.514   2.414   7.092 -1.4595  0.3574  0.0144
 2315TIP3   OH223516   5.761   3.483   8.243 -0.0905 -0.0975 -0.0913
 2315TIP3    H123517   5.856   3.477   8.255 -0.0446 -1.4006 -0.9104
 2315TIP3    H223518   5.725   3.421   8.306 -0.2833 -0.8978 -0.9665
 2316TIP3   OH223519   5.543   0.799   1.442 -0.0909 -0.3845  0.1927
 2316TIP3    H123520   5.566   0.892   1.441  1.6089 -0.7401 -2.4633
 2316TIP3    H223521   5.523   0.777   1.351  1.9878 -3.1017  0.2328
 2317TIP3   OH223522   2.801   0.562   7.283  0.1847 -0.1905 -0.1685
 2317TIP3    H123523   2.766   0.558   7.372  1.3991 -0.1432  0.3312
 2317TIP3    H223524   2.773   0.647   7.249 -1.0716 -0.5961 -0.1820
 2318TIP3   OH223525   0.413   2.942   1.411  0.5766  0.2076 -0.0172
 2318TIP3    H123526   0.488   2.911   1.360 -0.3022 -0.9327 -0.6732
 2318TIP3    H223527   0.401   2.874   1.478  2.9699  2.6231  3.1657
 2319TIP3   OH223528   2.658   2.183   6.065 -0.3072  0.3099  0.5634
 2319TIP3    H123529   2.754   2.181   6.059 -0.2588  2.2847  0.1037
 2319TIP3    H223530   2.634   2.273   6.044 -2.2261  0.0820  1.5317
 2320TIP3   OH223531   6.166   6.171   1.660  0.2361  0.1358  0.1322
 2320TIP3    H123532   6.158   6.258   1.621 -0.1248  0.0265 -0.0416
 2320TIP3    H223533   6.245   6.176   1.714 -0.0055  0.6896  0.4339
 2321TIP3   OH223534   5.417   2.602   9.385  0.1906 -0.0612  0.1624
 2321TIP3    H123535   5.371   2.565   9.461  1.6120 -0.6607  0.7686
 2321TIP3    H223536   5.453   2.527   9.340 -0.6893  0.2917 -1.1819
 2322TIP3   OH223537   5.171   4.718   7.639 -0.4585  0.2031  0.7776
 2322TIP3    H123538   5.240   4.772   7.677 -0.4278 -0.5484  1.8518
 2322TIP3    H223539   5.179   4.731   7.544 -0.6462  2.2756  1.0140
 2323TIP3   OH223540   4.934   4.531   1.244 -0.1685  0.3688 -0.0904
 2323TIP3    H123541   4.839   4.519   1.233 -0.0569  0.5851 -1.5987
 2323TIP3    H223542   4.972   4.468   1.182  0.7168 -0.3865  1.1717
 2324TIP3   OH223543   6.180   3.523   0.060  0.4485  0.6752  0.2994
 2324TIP3    H123544   6.141   3.560   0.139  1.8162 -0.6057  1.6408
 2324TIP3    H223545   6.270   3.555   0.061  0.7796 -0.2107 -0.1368
 2325TIP3   OH223546   1.275   0.863   7.782  0.0933 -0.4360  0.7832
 2325TIP3    H123547   1.351   0.914   7.752  0.2973 -0.6123  0.9914
 2325TIP3    H223548   1.269   0.883   7.876 -1.6953  1.6107  0.3202
 2326TIP3   OH223549   0.209   1.435   8.214 -1.0597  0.3103 -0.0833
 2326TIP3    H123550   0.123   1.397   8.231 -0.3153 -0.5616  1.9950
 2326TIP3    H223551   0.254   1.432   8.298  1.6335 -0.8170 -1.4483
 2327TIP3   OH223552   5.775   6.058   0.968  0.2951  0.4999  0.1585
 2327TIP3    H123553   5.802   5.973   1.004 -0.7401 -0.2925 -0.8472
 2327TIP3    H223554   5.719   6.035   0.895 -0.7057  2.0786  0.4022
 2328TIP3   OH223555   4.758   0.392   2.207 -0.1553  0.0699 -0.0774
 2328TIP3    H123556   4.742   0.313   2.257 -0.4292 -0.5678 -1.1345
 2328TIP3    H223557   4.791   0.361   2.122  1.3047  1.1578  0.0618
 2329TIP3   OH223558   1.442   3.814   0.038 -0.3470  0.1498 -0.1084
 2329TIP3    H123559   1.509   3.870   0.077  1.4318 -1.3751 -0.8178
 2329TIP3    H223560   1.419   3.858  -0.044  0.9052 -0.0128 -0.5726
 2330TIP3   OH223561   4.176   4.193   7.339 -0.3652 -0.1866  0.3616
 2330TIP3    H123562   4.137   4.277   7.362  0.2070 -0.2548  1.6915
 2330TIP3    H223563   4.108   4.128   7.360 -1.0286 -0.0391 -1.2308
 2331TIP3   OH223564   4.012   5.235   9.084 -0.5623  0.2023  0.3013
 2331TIP3    H123565   4.054   5.266   9.164  2.1268 -0.0180 -0.9085
 2331TIP3    H223566   3.981   5.147   9.105 -1.0885  0.6527  1.4565
 2332TIP3   OH223567   0.508   4.201   8.698  0.4227  0.1982  0.1334
 2332TIP3    H123568   0.436   4.236   8.646  0.9003  0.4002 -0.3976
 2332TIP3    H223569   0.532   4.119   8.654  0.1400 -0.1670  0.6462
 2333TIP3   OH223570   2.979   0.372   1.727  0.4732 -0.0938  0.0116
 2333TIP3    H123571   2.931   0.445   1.689  0.6252 -0.2032 -0.3943
 2333TIP3    H223572   2.912   0.317   1.767  0.2376 -0.3361 -0.7062
 2334TIP3   OH223573   5.131   5.602   7.751  0.2063  0.0057  0.2955
 2334TIP3    H123574   5.090   5.516   7.754 -0.3242  0.2182 -0.4782
 2334TIP3    H223575   5.132   5.631   7.842  0.9470 -1.0644  0.6446
 2335TIP3   OH223576   3.172   4.997   1.863 -0.2327 -0.0404 -0.1425
 2335TIP3    H123577   3.180   4.902   1.849  0.8909 -0.0699  0.5409
 2335TIP3    H223578   3.151   5.033   1.777  3.1251 -0.5247 -1.3056
 2336TIP3   OH223579   0.220   2.834   2.108 -0.2158  0.1042  0.7399
 2336TIP3    H123580   0.315   2.827   2.094 -0.7417 -2.2574 -3.1576
 2336TIP3    H223581   0.194   2.911   2.058 -0.5333 -0.6237 -0.2722
 2337TIP3   OH223582   3.329   0.656   9.128 -0.3803 -0.0549 -0.3814
 2337TIP3    H123583   3.419   0.635   9.106  0.5897  4.3436 -1.5991
 2337TIP3    H223584   3.333   0.688   9.219 -0.5412  0.6954 -0.6269
 2338TIP3   OH223585   4.902   1.794   0.845 -0.4194  0.1889  0.0732
 2338TIP3    H123586   4.834   1.769   0.782  1.0460 -1.2812 -1.0208
 2338TIP3    H223587   4.903   1.724   0.909  0.2875  0.0007 -0.1287
 2339TIP3   OH223588   5.363   1.657   2.439  0.0497  0.2665  0.0401
 2339TIP3    H123589   5.277   1.698   2.437 -1.2813 -2.3518 -1.3367
 2339TIP3    H223590   5.403   1.679   2.355  0.1549  0.3675  0.1162
 2340TIP3   OH223591   5.405   3.149   2.832  0.2356  0.1157 -0.3902
 2340TIP3    H123592   5.438   3.065   2.799 -1.7141 -1.1352  0.6024
 2340TIP3    H223593   5.320   3.160   2.788 -0.1879  0.8300  0.5767
 2341TIP3   OH223594   0.356   2.402   8.044 -0.4617 -0.4522  0.9104
 2341TIP3    H123595   0.342   2.496   8.059  1.5134  0.1551 -0.6194
 2341TIP3    H223596   0.424   2.399   7.977  0.2637 -3.0063  1.6706
 2342TIP3   OH223597   4.381   3.784   1.239 -0.2890 -0.2121  0.0176
 2342TIP3    H123598   4.342   3.744   1.317  2.3366 -0.4540  1.3319
 2342TIP3    H223599   4.462   3.735   1.226 -0.4436  0.1070 -2.6655
 2343TIP3   OH223600   2.590   3.777   7.038  0.3347  0.6226  0.0129
 2343TIP3    H123601   2.560   3.814   6.955 -0.4899 -0.5252 -0.2193
 2343TIP3    H223602   2.685   3.774   7.029  0.1747 -2.3460 -2.2076
 2344TIP3   OH223603   4.611   5.080   7.580  0.1288  0.5544  0.2416
 2344TIP3    H123604   4.647   5.045   7.499 -0.0565 -0.5681  0.6355
 2344TIP3    H223605   4.683   5.076   7.643 -0.2457 -0.3008  0.6266
 2345TIP3   OH223606   5.000   3.525   8.016 -0.0099 -0.0222 -0.3744
 2345TIP3    H123607   5.013   3.464   8.088  0.0916  1.2257  0.7179
 2345TIP3    H223608   4.916   3.500   7.978 -0.4138 -0.2672  0.6438
 2346TIP3   OH223609   0.705   5.289   1.708 -0.1857  0.2227 -0.0292
 2346TIP3    H123610   0.701   5.384   1.713  0.5156  0.2707 -0.3905
 2346TIP3    H223611   0.748   5.270   1.625 -2.3735 -0.4520 -1.0917
 2347TIP3   OH223612   2.049   1.873   6.931  0.2911 -0.0362  0.6868
 2347TIP3    H123613   2.051   1.809   6.860 -2.3976  0.4379  0.0434
 2347TIP3    H223614   2.066   1.957   6.888  1.3145 -0.0346  1.0851
 2348TIP3   OH223615   5.894   1.172   8.484 -0.1123  0.8817 -0.9364
 2348TIP3    H123616   5.895   1.222   8.565 -1.2006  1.2952 -1.1579
 2348TIP3    H223617   5.933   1.231   8.419  0.1486  0.8030 -0.8506
 2349TIP3   OH223618   0.943   4.472   7.923  0.1703 -0.3852  0.0250
 2349TIP3    H123619   0.912   4.381   7.921  2.3706 -1.2508 -3.3011
 2349TIP3    H223620   0.892   4.516   7.855 -2.2453  1.5670  2.8570
 2350TIP3   OH223621   1.815   2.189   0.036  0.0934  0.4143  0.3699
 2350TIP3    H123622   1.728   2.207   0.071  0.1420  0.5280  0.4335
 2350TIP3    H223623   1.833   2.264  -0.021 -0.7873 -0.6732 -1.4272
 2351TIP3   OH223624   2.504   2.925   0.887 -0.3032 -0.0201  0.2121
 2351TIP3    H123625   2.582   2.908   0.834  0.4688  0.0785  1.2793
 2351TIP3    H223626   2.477   3.013   0.862 -0.4740 -0.3070 -0.6445
 2352TIP3   OH223627   0.050   1.281   7.536  0.5724  0.3547  0.3448
 2352TIP3    H123628   0.122   1.237   7.492 -1.4327 -0.9186 -1.9373
 2352TIP3    H223629   0.079   1.371   7.547  2.2800  0.0135 -1.0191
 2353TIP3   OH223630   0.830   1.522   0.654  0.3645 -0.4341 -0.1799
 2353TIP3    H123631   0.887   1.478   0.591  1.7644  0.3349  0.5032
 2353TIP3    H223632   0.759   1.460   0.669  1.7071 -2.0143 -0.0650
 2354TIP3   OH223633   0.293   4.682   5.972  0.0301  0.5609 -0.3289
 2354TIP3    H123634   0.301   4.597   5.930 -0.5740  1.2666 -1.9268
 2354TIP3    H223635   0.201   4.706   5.963  0.5545  2.2573 -1.7120
 2355TIP3   OH223636   3.224   2.310   0.224 -0.3708  0.1639 -0.0722
 2355TIP3    H123637   3.195   2.356   0.146  0.2342  0.0256 -0.3887
 2355TIP3    H223638   3.318   2.326   0.227 -0.0831 -1.3322 -0.3970
 2356TIP3   OH223639   0.995   5.570   0.243  0.0116  0.4868  0.0166
 2356TIP3    H123640   0.911   5.545   0.204  0.3377 -2.5713  1.0569
 2356TIP3    H223641   0.976   5.653   0.287 -2.0159  0.7005 -1.1071
 2357TIP3   OH223642   6.147   0.555   7.612 -0.3834  0.0225 -0.1395
 2357TIP3    H123643   6.082   0.623   7.632 -0.3446  0.3958 -1.2434
 2357TIP3    H223644   6.206   0.597   7.550 -0.4945 -1.1104 -1.0266
 2358TIP3   OH223645   1.247   3.891   8.774  0.0671  0.8446 -0.2066
 2358TIP3    H123646   1.233   3.983   8.793  1.4502  1.1898 -0.7676
 2358TIP3    H223647   1.175   3.867   8.716  0.0535  1.7387 -0.5708
 2359TIP3   OH223648   5.395   5.831   7.780 -0.1937  0.0373  0.6076
 2359TIP3    H123649   5.398   5.748   7.826  0.7088 -1.5318 -2.0441
 2359TIP3    H223650   5.487   5.850   7.758 -0.6737 -0.3792 -2.1827
 2360TIP3   OH223651   4.719   0.276   0.920  0.0455  0.2094  0.2067
 2360TIP3    H123652   4.734   0.326   0.840 -2.2452  0.4112 -0.1740
 2360TIP3    H223653   4.637   0.312   0.956  0.2126 -0.8943  1.8218
 2361TIP3   OH223654   3.842   5.618   0.464 -0.5621 -0.0829  0.6453
 2361TIP3    H123655   3.899   5.627   0.540 -0.2375  0.2297  0.3647
 2361TIP3    H223656   3.885   5.551   0.410  0.5400  1.4526 -0.4580
 2362TIP3   OH223657   3.340   5.630   0.038  0.0133  0.1063  0.0804
 2362TIP3    H123658   3.299   5.674   0.112  1.3241  2.4072 -0.4407
 2362TIP3    H223659   3.432   5.623   0.063 -0.0638 -1.9635 -0.0900
 2363TIP3   OH223660   1.401   3.792   1.765 -0.4550 -0.0521 -0.4137
 2363TIP3    H123661   1.337   3.861   1.748 -0.1688  0.9022  1.9913
 2363TIP3    H223662   1.485   3.830   1.738 -0.3926  0.3142  0.2612
 2364TIP3   OH223663   4.803   6.419   8.843  0.2378  0.5534 -0.1200
 2364TIP3    H123664   4.829   6.336   8.882 -2.8337 -0.8889 -0.8460
 2364TIP3    H223665   4.852   6.423   8.761 -0.5555 -1.2902 -0.7412
 2365TIP3   OH223666   1.560   2.372   0.379 -0.1141 -0.1067 -0.1668
 2365TIP3    H123667   1.515   2.302   0.331  2.4229 -1.8773 -0.2121
 2365TIP3    H223668   1.566   2.339   0.469  0.4672  0.3746 -0.0231
 2366TIP3   OH223669   5.071   4.038   0.345 -0.2460  0.0672 -0.1806
 2366TIP3    H123670   5.126   4.002   0.415 -1.0135  0.5028  0.6735
 2366TIP3    H223671   5.005   4.090   0.391  0.1417  1.6441 -1.3241
 2367TIP3   OH223672   6.472   1.779   1.218 -0.5556 -0.0790 -0.2729
 2367TIP3    H123673   6.439   1.809   1.303 -2.6781  0.2740 -1.1569
 2367TIP3    H223674   6.395   1.781   1.160  0.5486 -1.5134 -1.8942
 2368TIP3   OH223675   0.781   2.764   8.158  0.5000  0.0986 -0.1517
 2368TIP3    H123676   0.766   2.686   8.211  1.4071 -0.4467 -0.6691
 2368TIP3    H223677   0.730   2.749   8.078 -0.8122  0.8885  0.5123
 2369TIP3   OH223678   6.249   0.344   9.311  0.1455 -0.6108  0.3014
 2369TIP3    H123679   6.212   0.310   9.392  0.2109 -0.7676  0.2663
 2369TIP3    H223680   6.180   0.331   9.246 -0.5424  1.0002  0.6533
 2370TIP3   OH223681   3.269   5.937   1.638 -0.2402  0.2463 -0.2803
 2370TIP3    H123682   3.300   5.997   1.706  0.9295 -0.4357 -0.2054
 2370TIP3    H223683   3.228   5.865   1.686  0.5483 -0.2143 -0.2840
 2371TIP3   OH223684   3.909   1.679   7.695  0.3727 -0.9116  0.7944
 2371TIP3    H123685   3.902   1.742   7.623  2.6152 -1.5490 -0.0508
 2371TIP3    H223686   3.966   1.722   7.759  0.0024 -1.1509  1.2908
 2372TIP3   OH223687   1.693   1.754   8.176  0.2499 -0.5814 -0.2875
 2372TIP3    H123688   1.709   1.769   8.269 -0.7669 -1.4402  0.0528
 2372TIP3    H223689   1.780   1.752   8.136  0.6321  3.2203  0.0079
 2373TIP3   OH223690   5.051   0.314   8.167  0.2958 -0.0580  0.1018
 2373TIP3    H123691   5.071   0.403   8.137 -1.1004  0.3068  0.1822
 2373TIP3    H223692   5.118   0.294   8.232  0.7188  0.8776 -0.0401
 2374TIP3   OH223693   2.821   4.365   7.445  0.7360  0.2085  0.6705
 2374TIP3    H123694   2.825   4.319   7.529  0.3102 -0.2278  0.4539
 2374TIP3    H223695   2.762   4.313   7.392  0.7531  0.6601  0.2020
 2375TIP3   OH223696   6.064   3.407   0.808 -0.3829  0.7303  0.0667
 2375TIP3    H123697   6.077   3.492   0.767 -1.0552  0.1402 -1.4313
 2375TIP3    H223698   6.132   3.351   0.772 -0.5702  0.3707  0.2625
 2376TIP3   OH223699   1.433   3.627   8.322 -0.0828 -0.2441 -1.6541
 2376TIP3    H123700   1.363   3.610   8.259 -1.9622 -0.0698  0.2795
 2376TIP3    H223701   1.391   3.620   8.408  2.2103  0.2155 -0.4004
 2377TIP3   OH223702   5.025   1.452   0.093 -0.3087  0.4660  0.2672
 2377TIP3    H123703   4.983   1.403   0.022  0.7556 -0.0105 -0.0570
 2377TIP3    H223704   5.021   1.394   0.168 -1.4443  0.9744  0.6191
 2378TIP3   OH223705   6.202   3.077   9.147 -0.4279 -0.0599 -0.3752
 2378TIP3    H123706   6.279   3.120   9.184 -1.9027  2.4178  0.0522
 2378TIP3    H223707   6.155   3.041   9.223 -0.1636 -0.7664 -0.5412
 2379TIP3   OH223708   2.363   1.477   9.040  0.6156  0.1521 -0.3399
 2379TIP3    H123709   2.435   1.534   9.066 -0.0104  0.2462  1.3163
 2379TIP3    H223710   2.307   1.472   9.117 -2.0716  1.4157 -2.0600
 2380TIP3   OH223711   1.499   3.471   8.018  0.3191 -0.5754 -0.0263
 2380TIP3    H123712   1.591   3.497   8.032 -0.1559  0.4730  1.4140
 2380TIP3    H223713   1.451   3.553   8.015 -0.6113 -1.1282 -0.4969
 2381TIP3   OH223714   2.728   2.884   8.052  0.3441  0.1014  0.8879
 2381TIP3    H123715   2.644   2.915   8.019  1.1336  2.6685  1.0657
 2381TIP3    H223716   2.767   2.836   7.979 -0.4285  0.6221  0.1218
 2382TIP3   OH223717   3.286   3.291   8.217 -0.1315 -0.0164  0.9489
 2382TIP3    H123718   3.281   3.351   8.292 -0.2662 -1.5794  2.2362
 2382TIP3    H223719   3.202   3.303   8.173 -0.3634  0.3880  1.4736
 2383TIP3   OH223720   1.197   0.589   8.371  0.2165  0.4352  0.1612
 2383TIP3    H123721   1.108   0.618   8.354 -0.0078  1.0405  2.1265
 2383TIP3    H223722   1.188   0.499   8.403  0.4524  0.0222 -0.8861
 2384TIP3   OH223723   2.396   4.292   6.835  0.1980  0.4651 -0.5859
 2384TIP3    H123724   2.364   4.379   6.857 -0.6869 -0.1511  0.6926
 2384TIP3    H223725   2.334   4.258   6.771 -1.8748 -0.7252  1.8783
 2385TIP3   OH223726   0.799   3.609   6.865 -0.3429  0.5011  0.1039
 2385TIP3    H123727   0.837   3.550   6.799 -2.0086 -0.5838  0.0498
 2385TIP3    H223728   0.753   3.676   6.814 -1.5624 -0.2917  0.1115
 2386TIP3   OH223729   1.794   1.823   6.231  0.7593  0.0192  0.4890
 2386TIP3    H123730   1.835   1.876   6.299  1.2957 -0.7768  0.8036
 2386TIP3    H223731   1.742   1.885   6.180  2.9194  1.2603 -0.3770
 2387TIP3   OH223732   5.316   5.599   8.557  0.3460  0.3824  0.4303
 2387TIP3    H123733   5.301   5.693   8.559  0.8935  0.5600 -1.7964
 2387TIP3    H223734   5.254   5.566   8.492  0.8904 -0.6520  0.4122
 2388TIP3   OH223735   1.062   4.066   0.330  0.0019 -0.3703 -0.5158
 2388TIP3    H123736   1.121   4.055   0.255 -2.2090  0.8718 -2.5705
 2388TIP3    H223737   1.002   3.992   0.324  0.4596 -0.8625  0.7265
 2389TIP3   OH223738   0.773   0.819   7.880 -0.7824  0.0056  0.1135
 2389TIP3    H123739   0.843   0.759   7.906 -0.4699  0.9602  1.6135
 2389TIP3    H223740   0.706   0.762   7.841  0.1019 -1.1265  0.1971
 2390TIP3   OH223741   2.021   0.477   5.588  0.0128  0.3476 -0.5268
 2390TIP3    H123742   1.982   0.507   5.506 -1.3483 -1.3950 -0.5691
 2390TIP3    H223743   1.951   0.483   5.652  1.2280  2.2838  0.7332
 2391TIP3   OH223744   4.396   6.115   0.932 -0.3879 -0.3291 -0.4351
 2391TIP3    H123745   4.425   6.106   0.841 -0.9935  0.2816 -0.6962
 2391TIP3    H223746   4.470   6.085   0.984  0.4306  0.4746 -1.1044
 2392TIP3   OH223747   4.328   0.147   3.164  0.2819  0.1399  0.0866
 2392TIP3    H123748   4.335   0.216   3.098  1.3262  0.5872  0.6305
 2392TIP3    H223749   4.413   0.102   3.160 -0.4220 -1.2053 -0.3401
 2393TIP3   OH223750   1.730   4.326   8.927 -0.5832  0.0725 -0.1667
 2393TIP3    H123751   1.814   4.305   8.967 -1.1585 -3.6474 -0.5805
 2393TIP3    H223752   1.671   4.341   9.002 -0.1911 -0.1225  0.1864
 2394TIP3   OH223753   0.942   0.867   9.307  0.0996 -0.2190  0.5114
 2394TIP3    H123754   0.922   0.775   9.324  1.1242 -0.6356 -0.4073
 2394TIP3    H223755   0.963   0.870   9.214  0.2191  0.9302  0.5610
 2395TIP3   OH223756   6.224   5.467   8.649  0.7409  0.6646  0.3553
 2395TIP3    H123757   6.281   5.531   8.692  3.4989  0.0453 -2.0395
 2395TIP3    H223758   6.166   5.519   8.594  0.5048  1.2073  1.0990
 2396TIP3   OH223759   5.613   4.421   1.180 -0.1967  0.1109  0.0642
 2396TIP3    H123760   5.520   4.424   1.202  0.0970  0.3244  1.3613
 2396TIP3    H223761   5.618   4.456   1.091 -1.1346  2.1265  0.7380
 2397TIP3   OH223762   2.792   2.614   0.683  0.2014 -0.2669 -0.4858
 2397TIP3    H123763   2.862   2.670   0.649 -1.6279  2.1270 -0.5917
 2397TIP3    H223764   2.757   2.662   0.758 -1.1176 -1.5394 -0.2421
 2398TIP3   OH223765   6.336   4.153   1.392 -0.0222  0.7851 -0.4463
 2398TIP3    H123766   6.292   4.146   1.307 -1.2016 -0.3510  0.2257
 2398TIP3    H223767   6.416   4.100   1.381 -1.4167 -1.5471 -0.1247
 2399TIP3   OH223768   0.266   3.714   8.766  0.2172  0.8146 -0.3401
 2399TIP3    H123769   0.184   3.690   8.723  0.2295  1.4329 -0.7266
 2399TIP3    H223770   0.241   3.784   8.827  0.0598 -0.5580  1.2577
 2400TIP3   OH223771   4.535   4.039   7.293 -0.0042  0.0941  0.8584
 2400TIP3    H123772   4.608   4.070   7.346  0.9982 -0.4955 -0.1393
 2400TIP3    H223773   4.536   4.095   7.215  0.9270 -1.4661 -0.2864
 2401TIP3   OH223774   5.148   2.974   9.266 -0.0836 -0.0072 -0.1059
 2401TIP3    H123775   5.234   3.009   9.292 -0.4992 -0.4690  2.0588
 2401TIP3    H223776   5.166   2.884   9.240 -0.0726 -0.5283  1.6367
 2402TIP3   OH223777   5.164   2.186   7.149  0.1499 -0.0015  0.0607
 2402TIP3    H123778   5.167   2.268   7.099  0.3143  0.2501  0.4735
 2402TIP3    H223779   5.252   2.178   7.186 -0.3416  0.4913  1.3767
 2403TIP3   OH223780   5.989   0.272   6.739 -0.1180  0.1710 -0.3367
 2403TIP3    H123781   6.000   0.367   6.746 -1.2216  0.1937  2.3589
 2403TIP3    H223782   5.896   0.257   6.758  0.1965 -1.4750  0.0933
 2404TIP3   OH223783   2.025   0.368   8.054 -0.4558  0.2582 -0.2886
 2404TIP3    H123784   2.046   0.461   8.047  0.4692  0.3336  2.4147
 2404TIP3    H223785   2.110   0.324   8.063 -0.9309 -0.7577 -0.5820
 2405TIP3   OH223786   2.495   5.882   1.498  0.3050  0.2902  0.0231
 2405TIP3    H123787   2.552   5.836   1.560  0.9960 -0.3753 -1.0753
 2405TIP3    H223788   2.548   5.891   1.419 -1.0701 -0.2312 -0.9942
 2406TIP3   OH223789   4.037   3.560   2.013  0.3758 -0.5171 -0.5214
 2406TIP3    H123790   3.943   3.575   2.016  0.3707 -0.6379  0.1205
 2406TIP3    H223791   4.068   3.610   1.938 -0.5090 -2.2354 -2.1058
 2407TIP3   OH223792   0.307   1.574   8.860  0.4525 -0.2994  0.4592
 2407TIP3    H123793   0.290   1.496   8.807  1.0677  0.0864 -0.3213
 2407TIP3    H223794   0.242   1.569   8.931 -1.3965 -0.0260 -1.1370
 2408TIP3   OH223795   2.743   3.779   0.623  0.2352  0.3630  0.0984
 2408TIP3    H123796   2.812   3.721   0.591  0.3055  0.6516 -0.2886
 2408TIP3    H223797   2.761   3.864   0.581 -0.5067  0.3749 -0.2264
 2409TIP3   OH223798   3.542   3.586   0.356 -0.6390 -0.5106  0.2955
 2409TIP3    H123799   3.479   3.628   0.297 -2.0547 -1.6636  0.9197
 2409TIP3    H223800   3.487   3.538   0.419  0.8053  0.6048  2.5236
 2410TIP3   OH223801   4.053   6.357   1.690  0.3686  0.1001  0.2950
 2410TIP3    H123802   4.019   6.272   1.662  0.4545 -0.2667  1.2734
 2410TIP3    H223803   4.007   6.376   1.772 -0.0900  1.2829 -0.2230
 2411TIP3   OH223804   6.223   2.951   2.484  0.1377 -0.2297 -0.2997
 2411TIP3    H123805   6.246   2.883   2.420  0.2090 -0.5263  0.0359
 2411TIP3    H223806   6.291   2.945   2.551  0.3610  0.4385 -0.4589
 2412TIP3   OH223807   5.048   2.745   6.581 -0.1705  0.2094  0.4138
 2412TIP3    H123808   5.026   2.795   6.502  0.2271 -1.7682 -1.0199
 2412TIP3    H223809   4.963   2.724   6.619 -0.3831  0.7508  0.2607
 2413TIP3   OH223810   0.484   6.169   8.017 -0.0348 -0.0639 -0.0856
 2413TIP3    H123811   0.522   6.244   7.971  0.9368 -0.6949 -0.3284
 2413TIP3    H223812   0.437   6.208   8.091  0.9189  0.7598  0.1097
 2414TIP3   OH223813   2.066   4.446   7.558 -0.0009 -0.0793 -0.1964
 2414TIP3    H123814   2.075   4.353   7.577 -2.1949 -0.5691 -1.2204
 2414TIP3    H223815   2.003   4.450   7.486  0.3954  2.1852 -0.5048
 2415TIP3   OH223816   5.097   5.780   8.618 -0.1857  0.3934 -0.7074
 2415TIP3    H123817   5.070   5.861   8.662 -0.3946 -0.5054  0.9076
 2415TIP3    H223818   5.022   5.757   8.562 -1.1254  0.1054  0.6146
 2416TIP3   OH223819   3.657   3.710   0.071 -0.1700  0.0148  0.2874
 2416TIP3    H123820   3.600   3.776   0.112 -0.9238 -1.8305  2.4488
 2416TIP3    H223821   3.607   3.678  -0.004 -1.2245 -0.3114  1.1075
 2417TIP3   OH223822   6.221   0.772   1.236  0.1522  0.3464  0.0686
 2417TIP3    H123823   6.234   0.678   1.229  1.2065  0.4554  0.3208
 2417TIP3    H223824   6.158   0.784   1.307  0.5824 -0.1404  0.5361
 2418TIP3   OH223825   1.909   3.943   0.596  0.0164  0.3462 -0.0026
 2418TIP3    H123826   1.833   3.954   0.539 -0.2067  1.9578  0.5689
 2418TIP3    H223827   1.903   4.014   0.660  0.2114 -1.4625  2.1295
 2419TIP3   OH223828   0.751   4.773   1.880  0.3867 -0.1503 -0.2942
 2419TIP3    H123829   0.756   4.710   1.808 -0.3024  1.0656 -1.4530
 2419TIP3    H223830   0.658   4.782   1.898  0.5778 -2.1522  2.3983
 2420TIP3   OH223831   4.494   0.784   7.029  0.1593 -0.6708 -0.3309
 2420TIP3    H123832   4.571   0.733   7.054  0.6585 -0.9523 -2.2252
 2420TIP3    H223833   4.458   0.737   6.953 -0.0818  1.0896 -1.3623
 2421TIP3   OH223834   1.208   0.078   2.590 -0.2103 -0.3096  0.0884
 2421TIP3    H123835   1.259   0.158   2.603  0.6614 -0.7042 -0.7942
 2421TIP3    H223836   1.232   0.022   2.664  0.2836 -0.3070 -0.0658
 2422TIP3   OH223837   2.608   2.388   2.856 -0.1569  0.0410  0.4199
 2422TIP3    H123838   2.648   2.383   2.943  0.4462  1.4854  0.2611
 2422TIP3    H223839   2.584   2.480   2.846  0.5351  0.0795 -1.2465
 2423TIP3   OH223840   5.972   6.049   0.363 -0.1975  0.7307 -0.3763
 2423TIP3    H123841   5.932   6.031   0.448 -0.7536  0.5594 -0.6708
 2423TIP3    H223842   5.903   6.032   0.300  0.6732 -0.8258 -0.9843
 2424TIP3   OH223843   4.893   5.386   1.327 -0.3162  0.3543 -0.1292
 2424TIP3    H123844   4.899   5.385   1.232 -1.0809  3.9074 -0.3522
 2424TIP3    H223845   4.884   5.293   1.352  0.9048 -0.7588 -3.3595
 2425TIP3   OH223846   0.281   2.119   7.465  0.1788  0.6448  0.4236
 2425TIP3    H123847   0.192   2.108   7.497  0.0519  2.1797  0.6514
 2425TIP3    H223848   0.335   2.069   7.527 -0.5654 -1.0316 -0.2169
 2426TIP3   OH223849   4.037   1.261   7.290  0.3087 -0.5586 -0.4369
 2426TIP3    H123850   4.000   1.321   7.226  0.0382 -0.4083 -0.1456
 2426TIP3    H223851   4.111   1.220   7.245  1.7281  1.4081 -0.0380
 2427TIP3   OH223852   5.356   0.436   7.266  0.1919 -0.1596 -0.4175
 2427TIP3    H123853   5.388   0.521   7.235 -0.1970 -0.1934 -0.9317
 2427TIP3    H223854   5.314   0.397   7.189 -0.2561 -0.5118 -0.0012
 2428TIP3   OH223855   0.052   3.780   7.864  0.3692  0.5280 -0.5326
 2428TIP3    H123856   0.078   3.741   7.948  0.6235 -0.3760 -1.0095
 2428TIP3    H223857  -0.032   3.739   7.843  0.8303 -0.1083 -1.2320
 2429TIP3   OH223858   6.097   4.016   6.384  0.8936 -0.6751 -0.2470
 2429TIP3    H123859   6.014   4.062   6.373  0.5325 -1.2513 -0.0128
 2429TIP3    H223860   6.164   4.083   6.373  0.3897 -0.1753 -0.2916
 2430TIP3   OH223861   1.280   4.112   6.893 -0.1705  0.1713 -0.2208
 2430TIP3    H123862   1.362   4.149   6.859 -0.2931  0.6468 -0.0178
 2430TIP3    H223863   1.277   4.023   6.858  2.1085 -1.1416  2.4544
 2431TIP3   OH223864   5.094   0.155   0.830 -0.1697  0.2977 -0.2275
 2431TIP3    H123865   5.036   0.223   0.795 -0.7988  0.5135  1.1850
 2431TIP3    H223866   5.051   0.125   0.910  1.5997  0.3978  0.8150
 2432TIP3   OH223867   0.290   2.279   7.718  0.4038 -0.0263 -0.0787
 2432TIP3    H123868   0.215   2.284   7.778  0.6512  0.8214  0.1686
 2432TIP3    H223869   0.362   2.321   7.765  0.5727  0.7559 -0.9974
 2433TIP3   OH223870   2.640   3.560   2.116 -0.3738  0.4250 -0.5201
 2433TIP3    H123871   2.732   3.531   2.120 -0.4567 -0.1868 -2.1741
 2433TIP3    H223872   2.590   3.478   2.123 -0.9373  0.9084  2.5232
 2434TIP3   OH223873   1.189   2.640   8.313 -0.4877  0.0439  0.8386
 2434TIP3    H123874   1.227   2.650   8.400 -0.1862  0.9391  0.6200
 2434TIP3    H223875   1.208   2.723   8.269 -0.8660 -0.2945  0.0088
 2435TIP3   OH223876   4.237   3.985   0.563  0.0694 -0.0685  0.0921
 2435TIP3    H123877   4.181   3.955   0.492  0.7602 -1.8808  0.2489
 2435TIP3    H223878   4.233   4.080   0.559 -1.8423 -0.1520 -0.7978
 2436TIP3   OH223879   6.124   0.656   0.838 -0.0446 -0.4319  0.1484
 2436TIP3    H123880   6.112   0.561   0.833  0.4950 -0.6612  2.2727
 2436TIP3    H223881   6.118   0.685   0.747  0.7655 -2.6200 -0.6844
 2437TIP3   OH223882   0.544   5.572   0.096 -0.3836 -0.7567  0.0850
 2437TIP3    H123883   0.630   5.539   0.069 -0.5232 -1.8635  0.9210
 2437TIP3    H223884   0.510   5.504   0.154 -1.6130 -0.0908  0.1630
 2438TIP3   OH223885   5.391   0.818   2.622  0.5419  0.1679 -0.2098
 2438TIP3    H123886   5.447   0.893   2.604 -1.0489  1.1280 -1.4615
 2438TIP3    H223887   5.450   0.752   2.658  2.2201  1.5557 -0.2859
 2439TIP3   OH223888   4.900   2.304   1.663  0.5234 -0.2332 -0.1745
 2439TIP3    H123889   4.866   2.388   1.630  2.1336  0.8669  0.8258
 2439TIP3    H223890   4.975   2.285   1.606  2.7439  1.2003  2.0765
 2440TIP3   OH223891   0.403   5.810   5.937 -0.4401 -0.3549  0.0518
 2440TIP3    H123892   0.350   5.744   5.892  0.0119  0.0456 -1.1039
 2440TIP3    H223893   0.376   5.893   5.899 -0.7759  0.1283  1.2717
 2441TIP3   OH223894   1.145   5.363   6.838  0.2024  0.5111  0.3701
 2441TIP3    H123895   1.156   5.418   6.916  1.0174  1.0468 -0.0981
 2441TIP3    H223896   1.206   5.401   6.774 -0.3083 -0.0385 -0.4595
 2442TIP3   OH223897   2.965   0.832   7.097 -0.0856 -0.1078 -0.7347
 2442TIP3    H123898   2.991   0.922   7.081 -1.0341  0.2874 -0.1430
 2442TIP3    H223899   2.964   0.824   7.192  1.1642 -1.1153 -0.7701
 2443TIP3   OH223900   6.144   1.642   7.658 -0.2101 -0.2549  0.0396
 2443TIP3    H123901   6.056   1.670   7.631 -0.7997 -0.5948  1.5226
 2443TIP3    H223902   6.192   1.632   7.575 -0.6523  2.7998 -0.6957
 2444TIP3   OH223903   1.398   0.625   1.504 -0.5208  0.0432  0.2446
 2444TIP3    H123904   1.490   0.646   1.519 -0.7010  1.4988 -0.5521
 2444TIP3    H223905   1.363   0.607   1.592  0.8345 -2.0836  0.4278
 2445TIP3   OH223906   5.711   3.437   8.641 -0.2667 -0.0534 -0.0212
 2445TIP3    H123907   5.771   3.373   8.681  0.1580  1.0011  1.0884
 2445TIP3    H223908   5.662   3.473   8.715 -0.0196  1.3903 -0.5325
 2446TIP3   OH223909   3.786   4.464   6.892 -0.8462  0.1647  0.8524
 2446TIP3    H123910   3.756   4.504   6.810  0.0618  0.7622  0.7870
 2446TIP3    H223911   3.718   4.485   6.955 -2.5591 -2.0322 -0.1620
 2447TIP3   OH223912   1.022   4.461   9.090  0.0537 -0.0971 -0.6049
 2447TIP3    H123913   0.999   4.388   9.147  0.1609  0.0483 -0.3742
 2447TIP3    H223914   1.031   4.536   9.149 -0.6193  0.2269 -0.9079
 2448TIP3   OH223915   6.392   5.015   6.941 -0.2171 -0.3199 -0.2368
 2448TIP3    H123916   6.366   4.970   6.861  2.2499 -2.6384  0.1413
 2448TIP3    H223917   6.471   5.064   6.917 -1.1591  1.4618  0.1129
 2449TIP3   OH223918   3.392   5.919   7.742  0.2035  0.3767  0.2073
 2449TIP3    H123919   3.365   5.907   7.651 -1.2997 -2.6184  0.9311
 2449TIP3    H223920   3.487   5.929   7.737  0.0357  1.5879 -1.7354
 2450TIP3   OH223921   5.650   5.396   7.544  0.5461 -0.2464  0.4603
 2450TIP3    H123922   5.614   5.385   7.456  0.6458 -1.4771  0.5554
 2450TIP3    H223923   5.707   5.472   7.537 -1.3436  1.2068  0.0803
 2451TIP3   OH223924   2.078   2.028   8.456  0.0154  0.4104 -0.1447
 2451TIP3    H123925   2.128   1.964   8.507  1.0198  0.6323 -0.8181
 2451TIP3    H223926   2.122   2.111   8.474 -1.1082  0.8744  0.5033
 2452TIP3   OH223927   1.905   4.127   0.791  0.2343  0.0730 -0.2796
 2452TIP3    H123928   1.824   4.123   0.842 -1.7312  1.8485 -3.0205
 2452TIP3    H223929   1.903   4.213   0.749  2.4787 -0.6778 -2.1289
 2453TIP3   OH223930   1.703   1.764   1.992 -0.2673  0.6083  0.1014
 2453TIP3    H123931   1.655   1.775   2.074 -0.9284 -0.2380 -0.1548
 2453TIP3    H223932   1.641   1.721   1.933  0.7134 -0.2429 -0.3404
 2454TIP3   OH223933   2.104   6.454   0.859 -0.5018  0.0831  0.2028
 2454TIP3    H123934   2.108   6.461   0.954 -0.4307 -0.5955  0.2590
 2454TIP3    H223935   2.042   6.382   0.844  0.1686 -0.4035 -0.2395
 2455TIP3   OH223936   1.224   5.852   7.359  0.3977  0.4971 -0.0965
 2455TIP3    H123937   1.153   5.831   7.420  1.2990  1.8538  1.4790
 2455TIP3    H223938   1.292   5.788   7.378 -0.1141 -0.4140 -1.1868
 2456TIP3   OH223939   0.164   3.258   8.276  0.2117  0.2729  0.7011
 2456TIP3    H123940   0.193   3.190   8.337  1.6069 -1.2158 -1.4970
 2456TIP3    H223941   0.213   3.336   8.302  1.1815 -0.4741  1.1863
 2457TIP3   OH223942   3.408   5.130   1.326 -0.2227  0.5204 -0.1728
 2457TIP3    H123943   3.436   5.209   1.372  2.1158 -0.6415  0.5296
 2457TIP3    H223944   3.450   5.058   1.372 -2.9364 -1.3012 -0.2737
 2458TIP3   OH223945   0.957   2.532   6.897  0.3352  0.7839 -0.5413
 2458TIP3    H123946   0.928   2.531   6.806  0.6601  0.4304 -0.6428
 2458TIP3    H223947   1.034   2.588   6.896  1.0205 -0.1421 -0.6997
 2459TIP3   OH223948   3.978   2.273   2.397 -0.1746  0.0585  0.1497
 2459TIP3    H123949   3.976   2.368   2.392 -0.4164  0.0383 -0.2214
 2459TIP3    H223950   3.930   2.251   2.476 -2.3054  0.1598 -1.0338
 2460TIP3   OH223951   3.217   2.032   7.243  0.1246 -0.0721  0.1011
 2460TIP3    H123952   3.186   2.002   7.328  1.2502 -1.1593  0.1632
 2460TIP3    H223953   3.215   1.954   7.187  3.6646 -0.5557  0.4165
 2461TIP3   OH223954   3.940   4.899   0.184 -0.4778  0.2980 -0.2925
 2461TIP3    H123955   3.844   4.900   0.188 -0.5173  0.9096 -1.2302
 2461TIP3    H223956   3.966   4.851   0.263 -1.5834 -1.1295 -0.7640
 2462TIP3   OH223957   5.445   1.466   0.669  0.3272 -0.2191  0.1623
 2462TIP3    H123958   5.534   1.441   0.692  0.6164  1.0385  0.5077
 2462TIP3    H223959   5.451   1.492   0.577  0.4882  0.5833  0.3939
 2463TIP3   OH223960   3.036   5.506   0.912 -0.5299 -0.0496  0.5441
 2463TIP3    H123961   3.078   5.578   0.959  1.1032 -1.9864  2.2310
 2463TIP3    H223962   3.109   5.454   0.878 -1.6699 -0.2472 -1.8319
 2464TIP3   OH223963   3.346   6.226   2.633 -0.1669  0.3136  0.6214
 2464TIP3    H123964   3.283   6.256   2.699 -2.9497 -1.7396 -0.8908
 2464TIP3    H223965   3.365   6.136   2.658  1.1739  0.4934  0.3022
 2465TIP3   OH223966   1.093   1.075   7.756 -0.2665  0.1741  0.6712
 2465TIP3    H123967   1.135   1.144   7.705 -1.2663  0.0158 -0.4258
 2465TIP3    H223968   1.164   1.016   7.781  0.4500  1.0525  0.7364
 2466TIP3   OH223969   2.719   2.466   2.293  0.6988  0.0716  0.6396
 2466TIP3    H123970   2.743   2.491   2.382  1.4747  1.0595  0.1682
 2466TIP3    H223971   2.779   2.515   2.237  0.7399 -1.1276 -0.4151
 2467TIP3   OH223972   5.570   1.528   8.536  0.3952 -0.2456 -0.8244
 2467TIP3    H123973   5.649   1.576   8.510  1.1150 -1.1955 -0.4472
 2467TIP3    H223974   5.554   1.557   8.626 -1.5028  2.2628 -1.8475
 2468TIP3   OH223975   2.419   5.881   0.435  0.3331 -0.1340  0.3352
 2468TIP3    H123976   2.485   5.832   0.385  2.0746  1.4581  0.9640
 2468TIP3    H223977   2.442   5.862   0.527 -0.5524 -0.1220  0.5618
 2469TIP3   OH223978   1.651   6.235   1.358 -1.0102  0.3919 -0.4856
 2469TIP3    H123979   1.565   6.204   1.387 -1.5454 -0.2674 -2.5420
 2469TIP3    H223980   1.708   6.158   1.365 -0.6322  0.7659  0.6577
 2470TIP3   OH223981   2.331   3.560   0.685  0.3413 -0.3568  0.3588
 2470TIP3    H123982   2.425   3.570   0.702  0.7156  0.4534 -1.7527
 2470TIP3    H223983   2.322   3.470   0.654  0.5427 -0.2599  0.0072
 2471TIP3   OH223984   4.324   4.805   8.944  0.4539 -0.0159 -0.3650
 2471TIP3    H123985   4.274   4.856   8.881  0.9640  1.0250  0.0537
 2471TIP3    H223986   4.359   4.732   8.893 -0.5791 -0.1636 -0.8913
 2472TIP3   OH223987   3.987   3.031   8.636 -0.0864  0.1765  0.1035
 2472TIP3    H123988   3.992   3.099   8.703 -0.2866 -0.8683  1.2061
 2472TIP3    H223989   3.893   3.013   8.627 -0.0578  0.2604 -0.4204
 2473TIP3   OH223990   3.078   1.285   8.346  0.0980  0.2788 -0.1191
 2473TIP3    H123991   3.124   1.357   8.390  2.4594 -1.4498  0.4622
 2473TIP3    H223992   3.136   1.261   8.273 -0.1825 -1.5315  0.2033
 2474TIP3   OH223993   3.481   5.374   1.426 -0.3553  0.7163 -0.4515
 2474TIP3    H123994   3.434   5.420   1.495  0.3059  1.4337 -0.4755
 2474TIP3    H223995   3.562   5.422   1.415  0.1335 -0.1649 -0.8285
 2475TIP3   OH223996   2.695   1.675   1.204  0.1261 -0.3193 -0.0348
 2475TIP3    H123997   2.671   1.583   1.208  0.2406 -0.3547 -0.1589
 2475TIP3    H223998   2.694   1.704   1.295  2.5113 -1.0812  0.3094
 2476TIP3   OH223999   5.205   0.934   0.913 -0.0763 -0.6309  0.1699
 2476TIP3    H124000   5.272   0.900   0.854 -0.8219 -1.3997 -0.2430
 2476TIP3    H224001   5.254   0.986   0.977  0.5534  2.7220 -2.7495
 2477TIP3   OH224002   3.444   1.936   9.244 -0.3545 -0.2075 -0.0524
 2477TIP3    H124003   3.537   1.943   9.263 -0.4648  1.1137  0.0971
 2477TIP3    H224004   3.409   1.884   9.317 -0.2647  2.2393  1.8917
 2478TIP3   OH224005   5.900   3.407   1.832  0.2799  0.3151 -0.0489
 2478TIP3    H124006   5.920   3.411   1.926  2.2553 -0.2935 -0.3916
 2478TIP3    H224007   5.902   3.498   1.803  2.0978  0.3433  0.0757
 2479TIP3   OH224008   2.543   1.092   6.924 -0.1117  0.4635  0.8745
 2479TIP3    H124009   2.623   1.094   6.872 -0.0333  1.3784  1.0125
 2479TIP3    H224010   2.532   1.000   6.947  1.9832  0.5239  2.4862
 2480TIP3   OH224011   0.801   3.339   6.888  0.0559 -0.5125 -0.0622
 2480TIP3    H124012   0.733   3.403   6.911 -0.0604 -0.7053  0.1314
 2480TIP3    H224013   0.768   3.297   6.808 -0.3279 -1.0120  0.3558
 2481TIP3   OH224014   0.563   2.523   1.816  0.3860  0.1077  0.3641
 2481TIP3    H124015   0.493   2.574   1.855  1.0244  0.3680  1.1997
 2481TIP3    H224016   0.534   2.432   1.823 -1.3462  0.3547 -2.3017
 2482TIP3   OH224017   3.847   0.377   7.773 -1.1187  0.2663 -0.6382
 2482TIP3    H124018   3.824   0.467   7.794  0.8890  0.6020  0.3716
 2482TIP3    H224019   3.879   0.380   7.683  0.1706  0.8434 -0.1826
 2483TIP3   OH224020   3.267   4.065   2.588  0.2984 -0.0649  0.2071
 2483TIP3    H124021   3.348   4.065   2.639  1.1381  1.2230 -1.0486
 2483TIP3    H224022   3.198   4.078   2.653  0.9346 -2.4572  1.4535
 2484TIP3   OH224023   2.207   4.098   7.873 -0.6744  0.2248  0.3284
 2484TIP3    H124024   2.291   4.132   7.905  0.7929 -1.5435 -1.3812
 2484TIP3    H224025   2.194   4.143   7.789 -1.6949  0.8075  0.7824
 2485TIP3   OH224026   0.861   2.483   9.195 -0.2042  0.0818 -0.5658
 2485TIP3    H124027   0.922   2.415   9.223  0.9956  0.9383 -1.0643
 2485TIP3    H224028   0.779   2.460   9.239  0.8974 -0.1486  1.4810
 2486TIP3   OH224029   2.513   3.710   0.274  0.2456 -0.5754 -0.3856
 2486TIP3    H124030   2.562   3.669   0.346  0.6675  0.6383  0.0305
 2486TIP3    H224031   2.425   3.723   0.310  1.1148  2.5000  0.9613
 2487TIP3   OH224032   4.926   5.191   2.431  0.3054  0.4233  0.5873
 2487TIP3    H124033   4.903   5.256   2.365  1.0207  0.9571  0.8511
 2487TIP3    H224034   4.908   5.234   2.514 -1.2388 -0.4833  0.7691
 2488TIP3   OH224035   3.021   1.019   0.351  0.2489  0.5822  0.2723
 2488TIP3    H124036   3.019   1.113   0.334  0.2669  0.9950  2.3456
 2488TIP3    H224037   2.962   1.006   0.425  1.9935 -0.7071  1.5082
 2489TIP3   OH224038   3.832   1.318   1.465  0.0217 -0.2386 -0.5828
 2489TIP3    H124039   3.805   1.402   1.502  0.3210 -1.4205  2.6389
 2489TIP3    H224040   3.750   1.277   1.437 -0.4589  0.0260  0.3850
 2490TIP3   OH224041   1.623   4.313   1.276 -0.0741 -0.2348  0.1095
 2490TIP3    H124042   1.573   4.350   1.204 -1.1938 -1.1872  0.3739
 2490TIP3    H224043   1.684   4.252   1.234 -0.3639 -0.3998 -0.0737
 2491TIP3   OH224044   5.533   2.142   1.358  0.3190 -0.2771 -0.4423
 2491TIP3    H124045   5.535   2.238   1.360  0.6660 -0.2951  1.0863
 2491TIP3    H224046   5.441   2.120   1.354  0.1815  0.1244  0.3411
 2492TIP3   OH224047   3.640   3.760   7.972 -0.1237 -0.3171  0.3186
 2492TIP3    H124048   3.576   3.764   7.901  0.4741  0.0699 -0.1979
 2492TIP3    H224049   3.587   3.768   8.052 -0.5359  2.2022 -0.1460
 2493TIP3   OH224050   0.592   4.839   6.293 -0.0916  0.0654 -0.1581
 2493TIP3    H124051   0.619   4.917   6.341  1.3847  0.4491 -1.5568
 2493TIP3    H224052   0.618   4.766   6.350 -1.9354  0.5278  1.3943
 2494TIP3   OH224053   3.095   0.361   7.980 -0.2158 -0.3454  0.6489
 2494TIP3    H124054   3.053   0.434   8.026  0.3094 -0.1146  0.7712
 2494TIP3    H224055   3.159   0.402   7.922  0.2088 -0.7084  0.8479
 2495TIP3   OH224056   6.004   1.550   6.583 -0.0395  0.0193 -0.5501
 2495TIP3    H124057   5.934   1.486   6.571 -0.2190  0.2436 -0.7002
 2495TIP3    H224058   6.084   1.501   6.565 -0.0240 -0.6794  1.2521
 2496TIP3   OH224059   4.474   3.329   0.605 -0.2951 -0.3182 -0.4629
 2496TIP3    H124060   4.432   3.244   0.592  0.3086 -0.6924 -0.0501
 2496TIP3    H224061   4.422   3.372   0.673 -2.3030  0.8412 -2.6035
 2497TIP3   OH224062   3.886   3.370   8.444  0.0608 -0.0000 -0.3606
 2497TIP3    H124063   3.938   3.381   8.365 -0.0291  0.5088 -0.3502
 2497TIP3    H224064   3.873   3.458   8.478  0.9459 -0.2832  0.7836
 2498TIP3   OH224065   6.025   5.521   2.278 -0.2039 -0.2714  0.1306
 2498TIP3    H124066   6.054   5.538   2.367  1.8698 -0.8706 -0.3657
 2498TIP3    H224067   5.983   5.435   2.282 -0.4826 -0.1153  0.5894
 2499TIP3   OH224068   4.435   3.516   8.379  0.8621  0.4864 -0.5924
 2499TIP3    H124069   4.497   3.544   8.312  1.1440 -1.1305 -1.0394
 2499TIP3    H224070   4.455   3.423   8.393  0.0805  0.5203  0.9394
 2500TIP3   OH224071   5.397   3.901   2.977 -0.0157 -0.1531 -0.1151
 2500TIP3    H124072   5.448   3.823   2.998 -0.4642 -0.3542  0.2376
 2500TIP3    H224073   5.317   3.868   2.938 -1.3475 -0.0215  2.3318
 2501TIP3   OH224074   4.576   4.792   3.397  0.1862 -0.1427 -0.0008
 2501TIP3    H124075   4.610   4.711   3.358 -1.2733 -1.2153  0.8554
 2501TIP3    H224076   4.573   4.774   3.490 -2.8777 -0.2125 -0.0296
 2502TIP3   OH224077   0.458   2.020   2.567  0.4638  0.4363 -0.2269
 2502TIP3    H124078   0.434   1.933   2.536 -3.1311  0.6095  1.5554
 2502TIP3    H224079   0.413   2.080   2.507  1.9913  1.1041 -0.7626
 2503TIP3   OH224080   3.510   2.107   8.759 -0.0219  0.2944  0.1987
 2503TIP3    H124081   3.557   2.042   8.705 -0.1848  0.2418  0.1192
 2503TIP3    H224082   3.483   2.058   8.837 -1.0321  0.0007 -0.3223
 2504TIP3   OH224083   1.094   5.410   1.002  0.5917 -0.3495 -0.5125
 2504TIP3    H124084   1.004   5.415   1.035  1.3725  0.7442  1.6261
 2504TIP3    H224085   1.115   5.499   0.976  1.4774 -0.3398  0.2139
 2505TIP3   OH224086   2.323   6.203   8.379  0.0115 -0.0646 -0.0410
 2505TIP3    H124087   2.379   6.206   8.457 -1.1736  0.6047  0.8297
 2505TIP3    H224088   2.381   6.227   8.307  0.8618  0.5724  0.8215
 2506TIP3   OH224089   1.270   2.919   8.594  0.3395 -0.4076  0.6323
 2506TIP3    H124090   1.321   2.975   8.652 -0.5477 -1.5420  2.5883
 2506TIP3    H224091   1.179   2.946   8.608  0.2033  0.9877 -2.1474
 2507TIP3   OH224092   0.806   5.252   2.168  0.1241 -0.2362  0.1507
 2507TIP3    H124093   0.877   5.258   2.104  0.6989  1.7965  0.9280
 2507TIP3    H224094   0.768   5.165   2.152 -0.4946  0.5558 -3.6821
 2508TIP3   OH224095   2.998   2.644   1.896  0.0791 -0.3927  0.3420
 2508TIP3    H124096   3.022   2.580   1.830 -3.3636 -1.5114 -0.0400
 2508TIP3    H224097   2.958   2.716   1.847 -2.3943 -1.1808  1.0576
 2509TIP3   OH224098   1.448   1.130   1.009  0.6016 -0.4226  0.3810
 2509TIP3    H124099   1.493   1.208   0.979 -0.2571 -0.5543 -1.3974
 2509TIP3    H224100   1.409   1.093   0.930 -0.1712 -1.8862  1.3965
 2510TIP3   OH224101   0.654   2.396   8.658 -0.1180  0.7657  0.2063
 2510TIP3    H124102   0.583   2.401   8.594  1.2626  1.2414 -1.3400
 2510TIP3    H224103   0.714   2.331   8.622  0.9996  1.5077  0.6982
 2511TIP3   OH224104   6.448   0.969   0.742  0.6449 -0.1846 -0.2427
 2511TIP3    H124105   6.396   0.922   0.807  0.7193 -0.2836 -0.2544
 2511TIP3    H224106   6.476   1.049   0.786 -1.4632  1.0246 -0.9544
 2512TIP3   OH224107   2.115   2.689   8.361 -0.1600 -0.1428  0.5362
 2512TIP3    H124108   2.204   2.688   8.396 -0.0477 -1.0511  0.2533
 2512TIP3    H224109   2.127   2.682   8.266 -0.4035  3.5430  0.1161
 2513TIP3   OH224110   1.598   2.946   7.938  0.0890  0.5558 -0.8440
 2513TIP3    H124111   1.616   2.904   8.021  3.0028  2.8405 -0.1525
 2513TIP3    H224112   1.564   3.033   7.961  1.9651  1.6414 -1.9172
 2514TIP3   OH224113   0.602   5.943   1.834  0.5432  0.1600 -0.8581
 2514TIP3    H124114   0.585   5.995   1.755 -0.3241  1.2732  0.0292
 2514TIP3    H224115   0.669   5.993   1.881  1.0094 -0.4670 -0.8378
 2515TIP3   OH224116   4.602   4.049   0.952  0.3194 -0.1393  0.5076
 2515TIP3    H124117   4.561   4.111   1.012  1.8413  0.4639  0.9702
 2515TIP3    H224118   4.673   4.099   0.910  0.7768 -1.2138 -0.0373
 2516TIP3   OH224119   0.847   5.932   1.149 -0.0214  0.1028  0.4016
 2516TIP3    H124120   0.845   5.886   1.065 -0.8615  1.0167 -0.1031
 2516TIP3    H224121   0.896   6.012   1.132 -0.7040  0.5813  0.6124
 2517TIP3   OH224122   1.348   5.441   0.489 -0.0394  0.1749 -0.5574
 2517TIP3    H124123   1.372   5.471   0.576 -0.2140  1.7903 -1.0372
 2517TIP3    H224124   1.407   5.367   0.472  0.1398 -0.0161  0.8294
 2518TIP3   OH224125   5.800   2.536   7.259  0.7745 -0.1274  0.2977
 2518TIP3    H124126   5.754   2.472   7.205  1.2250 -0.2532  0.0511
 2518TIP3    H224127   5.791   2.619   7.213 -1.3266  0.3730  1.5096
 2519TIP3   OH224128   5.935   2.499   1.783  0.7037  0.0074 -0.3344
 2519TIP3    H124129   5.984   2.579   1.803 -0.1276  0.4902 -0.2013
 2519TIP3    H224130   5.889   2.478   1.864 -0.3051  0.2821 -0.8102
 2520TIP3   OH224131   5.922   3.384   7.458  0.2195 -0.6770 -0.1991
 2520TIP3    H124132   5.841   3.435   7.459  1.6122  1.6707  0.5839
 2520TIP3    H224133   5.990   3.447   7.434  2.1251 -2.0146  1.3308
 2521TIP3   OH224134   4.161   4.720   1.440  0.0103 -0.2325 -0.1333
 2521TIP3    H124135   4.206   4.798   1.474  1.4669 -0.8570 -0.5777
 2521TIP3    H224136   4.207   4.647   1.480 -0.4287 -0.9100 -0.8486
 2522TIP3   OH224137   4.122   2.709   2.721  0.2386 -0.1146 -0.0075
 2522TIP3    H124138   4.077   2.791   2.743 -0.4411 -0.6628  0.6873
 2522TIP3    H224139   4.071   2.641   2.765  0.9362 -0.8914 -0.3776
 2523TIP3   OH224140   0.680   4.945   8.876  0.3117  0.0122 -0.0608
 2523TIP3    H124141   0.721   4.988   8.802  1.3840  0.1993  0.6292
 2523TIP3    H224142   0.607   4.895   8.837  1.9195 -1.3465 -1.4927
 2524TIP3   OH224143   5.630   0.956   8.228  0.2322  0.2254 -0.0560
 2524TIP3    H124144   5.653   0.913   8.145  0.2724  2.7574 -1.4575
 2524TIP3    H224145   5.642   1.049   8.210 -0.8671  0.9219  2.4925
 2525TIP3   OH224146   3.128   2.323   1.832 -0.5867  0.1868 -0.2496
 2525TIP3    H124147   3.217   2.292   1.812 -1.4463 -1.5759 -1.6141
 2525TIP3    H224148   3.117   2.303   1.925  0.4436  0.4113 -0.0682
 2526TIP3   OH224149   1.042   1.371   8.341  0.4515  0.1017  0.1976
 2526TIP3    H124150   1.087   1.340   8.262  1.5397 -2.2182  1.6359
 2526TIP3    H224151   1.109   1.422   8.387 -0.4739  2.3158 -0.7468
 2527TIP3   OH224152   0.911   5.874   8.909 -0.1432  0.6160  0.2524
 2527TIP3    H124153   0.857   5.953   8.905 -0.8544  0.1336  0.3107
 2527TIP3    H224154   0.861   5.812   8.962  1.1877  0.7096  1.7168
 2528TIP3   OH224155   6.343   5.171   1.003  0.3037 -0.2574 -0.0369
 2528TIP3    H124156   6.293   5.092   1.021 -1.4839  0.3900 -1.8144
 2528TIP3    H224157   6.395   5.150   0.926 -1.4894  0.7277 -1.6149
 2529TIP3   OH224158   3.309   1.116   1.023 -0.5859 -0.0929  0.2994
 2529TIP3    H124159   3.265   1.200   1.006  1.5652  0.8955 -0.7291
 2529TIP3    H224160   3.311   1.109   1.118 -1.2345  0.7904  0.3890
 2530TIP3   OH224161   5.648   2.735   0.387 -0.6414 -0.6215  0.4163
 2530TIP3    H124162   5.555   2.740   0.409 -0.5780  0.2322  0.5303
 2530TIP3    H224163   5.656   2.783   0.305 -0.3143 -0.8048  0.3385
 2531TIP3   OH224164   5.598   3.246   7.377  0.3224  0.0074  0.1262
 2531TIP3    H124165   5.621   3.331   7.414  0.9211  0.4237 -1.1313
 2531TIP3    H224166   5.634   3.248   7.289  3.2365 -2.7807  1.0684
 2532TIP3   OH224167   1.110   3.454   7.292 -0.0613 -0.4084 -0.2614
 2532TIP3    H124168   1.043   3.442   7.225 -0.9073 -0.9579  0.6397
 2532TIP3    H224169   1.065   3.500   7.363  0.7663  0.0151 -0.0005
 2533TIP3   OH224170   4.479   1.057   7.006  0.4935  0.3785  0.1218
 2533TIP3    H124171   4.500   0.967   7.030 -0.3731 -0.0188 -0.5440
 2533TIP3    H224172   4.542   1.079   6.937  0.7096  0.2913  0.2901
 2534TIP3   OH224173   1.414   5.106   8.652 -0.1407 -0.1055 -0.0394
 2534TIP3    H124174   1.348   5.160   8.694 -0.6532 -1.4816  1.0028
 2534TIP3    H224175   1.364   5.037   8.608  0.5529 -0.5752 -0.1100
 2535TIP3   OH224176   1.955   0.764   6.587 -0.4273  0.8638  0.0560
 2535TIP3    H124177   2.024   0.825   6.613  0.9658 -1.2525  1.6811
 2535TIP3    H224178   1.888   0.772   6.654  0.0618  0.1754  0.6387
 2536TIP3   OH224179   2.239   3.282   0.986 -0.2945  0.0296 -0.4046
 2536TIP3    H124180   2.229   3.203   1.039 -0.7694 -0.3646 -1.0544
 2536TIP3    H224181   2.150   3.299   0.953 -0.4862  1.6343  0.8191
 2537TIP3   OH224182   1.524   3.534   2.482 -0.1495  0.0515 -0.5237
 2537TIP3    H124183   1.597   3.482   2.517 -0.0562 -0.6438 -1.7056
 2537TIP3    H224184   1.462   3.470   2.450 -1.6033  0.6240  0.9914
 2538TIP3   OH224185   2.682   1.397   7.453 -0.1222 -0.5923 -0.3711
 2538TIP3    H124186   2.688   1.358   7.365  0.1005 -1.6749  0.1115
 2538TIP3    H224187   2.590   1.386   7.477  0.6002 -4.3429  1.2837
 2539TIP3   OH224188   1.847   0.742   3.347 -0.3761  0.1370  0.0985
 2539TIP3    H124189   1.828   0.784   3.263  0.2710 -0.8332 -0.5516
 2539TIP3    H224190   1.773   0.683   3.361  1.1744 -2.3769 -1.5993
 2540TIP3   OH224191   0.049   3.357   9.060  0.0857  0.2992 -0.1292
 2540TIP3    H124192   0.140   3.379   9.080  0.0016 -0.0277  0.6821
 2540TIP3    H224193   0.049   3.262   9.048 -0.0696  0.3548 -0.5693
 2541TIP3   OH224194   1.313   0.549   8.997  0.7130 -0.2889 -0.4636
 2541TIP3    H124195   1.261   0.585   8.925 -0.2613  1.0791  0.8483
 2541TIP3    H224196   1.398   0.529   8.959 -0.4031 -1.6013 -2.4466
 2542TIP3   OH224197   5.692   1.489   1.823 -0.0362  0.2988  0.2020
 2542TIP3    H124198   5.780   1.459   1.802  0.0380  1.0233 -0.5406
 2542TIP3    H224199   5.634   1.423   1.785  0.1769 -0.8057  1.6788
 2543TIP3   OH224200   5.163   1.575   2.671 -0.3510  0.3148  0.0650
 2543TIP3    H124201   5.227   1.637   2.706  0.6055 -0.4267 -0.3244
 2543TIP3    H224202   5.114   1.626   2.606 -0.9962  1.2231  1.2348
 2544TIP3   OH224203   1.320   4.887   7.614  0.3227 -0.7577 -0.3097
 2544TIP3    H124204   1.233   4.892   7.575  0.3596  1.3393 -0.2616
 2544TIP3    H224205   1.310   4.829   7.689 -0.9584 -0.8039 -0.4923
 2545TIP3   OH224206   1.009   2.979   8.649  0.1776 -0.5216 -0.4570
 2545TIP3    H124207   0.930   2.925   8.649 -0.7631  0.6194  3.0615
 2545TIP3    H224208   0.994   3.043   8.579 -1.9308 -0.4773 -0.0429
 2546TIP3   OH224209   1.952   1.878   6.598  0.0742 -0.7997  0.3841
 2546TIP3    H124210   1.917   1.790   6.586 -1.2305 -0.5146  1.8402
 2546TIP3    H224211   1.891   1.935   6.551  0.9235 -0.6463 -0.5667
 2547TIP3   OH224212   1.701   1.277   6.661 -0.0304  0.0981  0.6836
 2547TIP3    H124213   1.754   1.217   6.714  1.1597  0.1001 -0.4426
 2547TIP3    H224214   1.722   1.254   6.570 -1.9350  0.1587  0.1859
 2548TIP3   OH224215   0.728   5.376   8.157  0.2965 -0.0661 -0.2677
 2548TIP3    H124216   0.672   5.304   8.184  0.6264 -0.9370 -1.7811
 2548TIP3    H224217   0.816   5.351   8.187  0.6500 -0.9982 -1.9531
 2549TIP3   OH224218   2.453   4.272   0.503 -0.0506 -0.5903  0.0278
 2549TIP3    H124219   2.548   4.281   0.510 -0.1496  0.1786  0.6119
 2549TIP3    H224220   2.432   4.195   0.556  0.0919  0.2369  1.3514
 2550TIP3   OH224221   2.005   4.640   0.270  0.2239 -0.4509 -0.1684
 2550TIP3    H124222   1.934   4.691   0.232  1.2192  0.7157 -0.5198
 2550TIP3    H224223   2.055   4.703   0.322  1.7511 -0.9416 -0.9904
 2551TIP3   OH224224   1.192   1.308   7.671 -0.8186 -0.3591  0.3201
 2551TIP3    H124225   1.174   1.360   7.750  2.1944  0.9189  0.3117
 2551TIP3    H224226   1.149   1.356   7.600  0.6414  1.4120  0.5457
 2552TIP3   OH224227   5.604   0.884   2.066  0.4674 -0.0780 -0.2009
 2552TIP3    H124228   5.511   0.897   2.083  0.4023 -1.4668  0.6159
 2552TIP3    H224229   5.618   0.790   2.077  2.4036  0.3867  1.9269
 2553TIP3   OH224230   2.294   6.433   1.819 -0.1523 -0.3571 -0.3670
 2553TIP3    H124231   2.368   6.404   1.765  0.4715  1.8609 -0.8438
 2553TIP3    H224232   2.237   6.480   1.758  0.2650  1.6779  0.6878
 2554TIP3   OH224233   2.228   6.301   2.928  0.3562  0.5067 -0.4038
 2554TIP3    H124234   2.209   6.225   2.983 -1.5301  0.5140 -0.9709
 2554TIP3    H224235   2.227   6.268   2.839  1.5461  0.8501 -0.5693
 2555TIP3   OH224236   0.559   0.076   0.997 -0.0233  0.0017 -0.0251
 2555TIP3    H124237   0.547   0.021   0.920 -1.2494  2.2884 -1.5988
 2555TIP3    H224238   0.646   0.114   0.987 -0.1611  0.2557 -0.2922
 2556TIP3   OH224239   0.765   1.607   7.992 -0.2760  0.1146  0.4957
 2556TIP3    H124240   0.779   1.528   8.044 -2.3335  0.5530  1.8206
 2556TIP3    H224241   0.684   1.645   8.025 -0.4480  1.7118 -1.4852
 2557TIP3   OH224242   2.071   1.363   8.245  0.5798  0.3660 -0.2989
 2557TIP3    H124243   2.075   1.422   8.319 -0.7740  0.1100 -0.0003
 2557TIP3    H224244   2.116   1.410   8.174  0.6166  1.2113  0.2741
 2558TIP3   OH224245   0.663   0.992   7.602 -0.1257  0.0876 -0.6958
 2558TIP3    H124246   0.625   1.039   7.676  0.0704 -0.0491 -0.5064
 2558TIP3    H224247   0.646   0.900   7.620  0.6696 -0.0098 -0.3862
 2559TIP3   OH224248   3.793   3.005   7.631 -0.0599 -0.3743 -0.3377
 2559TIP3    H124249   3.833   2.918   7.631  2.1184  0.5370  0.6234
 2559TIP3    H224250   3.761   3.018   7.720 -0.6032 -0.2767 -0.5428
 2560TIP3   OH224251   0.410   5.818   7.106 -0.4250  0.2490 -0.1403
 2560TIP3    H124252   0.364   5.853   7.183  0.5481  1.9966 -0.2984
 2560TIP3    H224253   0.470   5.888   7.081  0.5804 -1.0196 -1.4016
 2561TIP3   OH224254   5.471   5.617   9.357  0.0566 -0.4605  0.3172
 2561TIP3    H124255   5.557   5.636   9.318  0.7298 -0.9099  1.5514
 2561TIP3    H224256   5.482   5.531   9.399 -1.7340 -1.7686 -1.6478
 2562TIP3   OH224257   4.785   1.699   1.648  0.0547 -0.6924 -0.1890
 2562TIP3    H124258   4.802   1.641   1.722 -2.2014 -1.6441 -0.3427
 2562TIP3    H224259   4.821   1.653   1.572  1.6719 -0.0706  0.1467
 2563TIP3   OH224260   1.112   2.490   2.762  0.2259  0.0504 -0.3968
 2563TIP3    H124261   1.172   2.551   2.806  1.3627 -1.3964  0.1260
 2563TIP3    H224262   1.136   2.404   2.796 -1.7961 -0.6521 -0.6005
 2564TIP3   OH224263   2.252   5.766   2.779 -0.6631 -0.0684  0.3642
 2564TIP3    H124264   2.291   5.753   2.693  1.3558 -2.1884  1.4671
 2564TIP3    H224265   2.163   5.732   2.771 -0.8548  0.7136 -1.1023
 2565TIP3   OH224266   6.113   4.082   0.069 -0.1821  0.0490 -0.1552
 2565TIP3    H124267   6.185   4.112   0.125 -1.3370  0.2156  1.2910
 2565TIP3    H224268   6.038   4.077   0.127 -1.0688 -1.3640 -1.3578
 2566TIP3   OH224269   4.141   0.486   0.811  0.8638 -0.1622 -0.6451
 2566TIP3    H124270   4.228   0.455   0.788  0.9986 -0.4774  0.2436
 2566TIP3    H224271   4.082   0.438   0.753  1.2211 -0.6210 -0.6343
 2567TIP3   OH224272   1.390   0.902   7.416 -0.1470  0.0190  0.2956
 2567TIP3    H124273   1.457   0.918   7.483 -0.7480 -3.8425  2.0759
 2567TIP3    H224274   1.413   0.817   7.379 -3.2704 -0.8370  0.0478
 2568TIP3   OH224275   5.225   0.941   1.539 -0.2383  0.1822 -0.2616
 2568TIP3    H124276   5.176   0.936   1.621 -1.5955  0.6372 -1.0202
 2568TIP3    H224277   5.273   1.023   1.545  3.6361 -1.9171  2.1418
 2569TIP3   OH224278   0.394   4.814   0.470 -0.0738 -0.3128 -0.4195
 2569TIP3    H124279   0.321   4.819   0.408  0.8014 -1.9867 -1.6790
 2569TIP3    H224280   0.369   4.745   0.531  0.5143 -1.0195 -0.9652
 2570TIP3   OH224281   4.169   2.075   7.312 -0.5161  0.0269 -0.0368
 2570TIP3    H124282   4.218   2.156   7.324  0.8801 -0.7417 -0.2961
 2570TIP3    H224283   4.183   2.025   7.392 -3.1047  0.8560  1.0254
 2571TIP3   OH224284   5.973   3.303   1.241 -0.2012 -0.0900 -0.1577
 2571TIP3    H124285   5.901   3.366   1.246 -1.0403 -1.0704  0.3521
 2571TIP3    H224286   5.964   3.250   1.320  1.6384  0.3489  0.3895
 2572TIP3   OH224287   1.584   4.416   2.480 -0.2508 -0.0713 -0.2098
 2572TIP3    H124288   1.587   4.440   2.573  2.0640 -0.3030 -0.1739
 2572TIP3    H224289   1.609   4.324   2.478  1.1551  0.2991 -1.1467
 2573TIP3   OH224290   2.674   2.965   0.685 -0.4245 -0.3557 -0.5187
 2573TIP3    H124291   2.686   2.905   0.612 -1.5927 -0.5783 -0.5522
 2573TIP3    H224292   2.735   3.036   0.668  1.4186 -1.7835 -0.1816
 2574TIP3   OH224293   4.530   2.992   0.075 -0.0576  0.3767 -0.2180
 2574TIP3    H124294   4.604   3.051   0.089 -0.4721  0.8166  0.1683
 2574TIP3    H224295   4.495   3.016  -0.011  0.9459 -0.6192 -0.9348
 2575TIP3   OH224296   4.866   4.811   1.140 -0.0970  0.2642 -0.3158
 2575TIP3    H124297   4.779   4.804   1.101  0.0071 -0.2929 -0.4613
 2575TIP3    H224298   4.925   4.774   1.074  0.3174  1.1066 -0.4289
 2576TIP3   OH224299   6.251   1.720   2.440 -0.3327  0.2870  0.4184
 2576TIP3    H124300   6.263   1.663   2.516  0.8324 -0.9652 -0.6450
 2576TIP3    H224301   6.329   1.776   2.440  0.3856 -0.6768 -0.6101
 2577TIP3   OH224302   1.969   3.817   8.859  0.1624  0.4320  0.1226
 2577TIP3    H124303   1.899   3.809   8.794  2.0821 -0.1710 -1.9656
 2577TIP3    H224304   2.001   3.727   8.871  0.6631  0.7090  0.9799
 2578TIP3   OH224305   1.378   2.913   1.380  0.2857  0.2109 -0.1981
 2578TIP3    H124306   1.393   2.860   1.458 -0.3110  2.0409  1.2295
 2578TIP3    H224307   1.302   2.873   1.338 -0.5254  0.2563  1.1659
 2579TIP3   OH224308   5.355   0.148   2.124 -0.3189 -0.6638 -0.7498
 2579TIP3    H124309   5.289   0.185   2.064 -0.6620  1.6960  0.9319
 2579TIP3    H224310   5.332   0.185   2.209  1.5016 -2.1173  0.4304
 2580TIP3   OH224311   4.750   3.161   0.040 -0.1615  0.5101  0.3451
 2580TIP3    H124312   4.768   3.159  -0.053  0.3394 -1.1425  0.4553
 2580TIP3    H224313   4.676   3.222   0.049 -1.7217 -0.9879 -1.4104
 2581TIP3   OH224314   1.840   2.704   8.044  0.2428  0.3692  0.3609
 2581TIP3    H124315   1.832   2.795   8.076 -0.7052  0.4427 -0.0660
 2581TIP3    H224316   1.750   2.673   8.037  0.5820 -0.9795  1.5178
 2582TIP3   OH224317   2.608   3.457   7.435  0.3671  0.1786  0.3734
 2582TIP3    H124318   2.580   3.505   7.358  0.4623 -1.1762 -0.5466
 2582TIP3    H224319   2.641   3.524   7.495 -1.3034  1.4306 -0.0294
 2583TIP3   OH224320   5.827   0.881   8.409 -0.1457  0.3852 -0.2255
 2583TIP3    H124321   5.859   0.957   8.458 -1.0472  0.1402  0.7738
 2583TIP3    H224322   5.750   0.913   8.363 -1.6568 -0.3221  1.6656
 2584TIP3   OH224323   5.138   3.337   9.379 -0.5250  0.5229 -0.6517
 2584TIP3    H124324   5.139   3.429   9.352  0.5608  0.8607  0.4545
 2584TIP3    H224325   5.228   3.307   9.366 -0.3251  0.2691  1.0588
 2585TIP3   OH224326   5.734   5.716   1.994  0.3381 -0.1121 -0.0329
 2585TIP3    H124327   5.755   5.804   1.963 -0.7566 -0.3257 -1.5153
 2585TIP3    H224328   5.656   5.728   2.048  1.2296  0.0254  1.2792
 2586TIP3   OH224329   2.533   1.776   9.373  0.2466  0.7832  0.2651
 2586TIP3    H124330   2.544   1.733   9.289  1.5665 -1.6995  1.5873
 2586TIP3    H224331   2.621   1.777   9.412 -0.2224  2.3692  1.4009
 2587TIP3   OH224332   0.917   5.225   6.869  0.4700  0.4458  0.7385
 2587TIP3    H124333   0.868   5.221   6.787  0.3846 -0.2424  0.8144
 2587TIP3    H224334   0.991   5.283   6.851 -0.7032  2.0242  0.8109
 2588TIP3   OH224335   1.987   1.457   7.161  0.1534 -0.2313  0.7370
 2588TIP3    H124336   2.041   1.381   7.141  1.3619  0.5875  0.7622
 2588TIP3    H224337   1.965   1.447   7.254  2.9637  0.9547  1.6687
 2589TIP3   OH224338   5.423   5.155   0.253 -0.2197 -0.6977  0.2735
 2589TIP3    H124339   5.367   5.108   0.191  0.2363  1.1607 -1.7001
 2589TIP3    H224340   5.382   5.143   0.338 -2.6324 -0.8367 -0.8381
 2590TIP3   OH224341   2.588   0.803   8.358 -0.0347 -0.2271  0.0239
 2590TIP3    H124342   2.620   0.728   8.308  0.0789  0.5121 -1.0473
 2590TIP3    H224343   2.533   0.851   8.296 -1.7698 -0.4783  1.2881
 2591TIP3   OH224344   3.965   0.229   8.847  0.2162  0.6442  0.1377
 2591TIP3    H124345   4.032   0.246   8.781  0.8170  0.5421  0.7169
 2591TIP3    H224346   3.980   0.139   8.874 -0.0076  0.6971  0.4404
 2592TIP3   OH224347   2.616   6.304   1.931 -0.3107  0.6647 -0.4320
 2592TIP3    H124348   2.582   6.358   2.003  0.0117  0.9634 -0.4992
 2592TIP3    H224349   2.689   6.256   1.970 -1.5874 -0.9470  0.0514
 2593TIP3   OH224350   1.197   4.708   0.032  0.5113  0.2650  0.8862
 2593TIP3    H124351   1.120   4.663  -0.003  0.3657  0.3325  1.1176
 2593TIP3    H224352   1.183   4.800   0.012  0.3412  0.3262  1.2797
 2594TIP3   OH224353   1.748   5.104   1.420  0.3160 -0.1554 -0.3766
 2594TIP3    H124354   1.725   5.166   1.351  0.1787 -0.0392 -0.2274
 2594TIP3    H224355   1.839   5.126   1.442 -0.0111  0.5698  0.2807
 2595TIP3   OH224356   3.820   0.665   8.037  0.1138  0.2477 -0.0562
 2595TIP3    H124357   3.805   0.758   8.055 -1.5394 -0.2237  1.2198
 2595TIP3    H224358   3.914   0.659   8.019 -0.0202  2.4273 -1.9894
 2596TIP3   OH224359   5.504   6.126   8.884  0.1539 -0.2468  0.0353
 2596TIP3    H124360   5.474   6.058   8.945 -0.8527  1.0423  1.0509
 2596TIP3    H224361   5.519   6.203   8.940  0.4185  0.6196 -1.1904
 2597TIP3   OH224362   3.386   2.534   1.840 -0.1463  0.0773  0.0799
 2597TIP3    H124363   3.354   2.556   1.927 -0.2140 -2.5530  0.8134
 2597TIP3    H224364   3.448   2.604   1.818 -1.7596  1.9447  1.2621
 2598TIP3   OH224365   1.162   4.452   2.400  0.1191  0.0193 -0.4651
 2598TIP3    H124366   1.102   4.453   2.326  0.5150 -1.0301 -0.8240
 2598TIP3    H224367   1.247   4.429   2.361  0.6166  0.7729  0.1344
 2599TIP3   OH224368   0.918   2.677   2.661  0.3084 -0.1140  0.2169
 2599TIP3    H124369   1.004   2.638   2.675 -0.0288 -0.9916 -0.0938
 2599TIP3    H224370   0.934   2.747   2.596  0.8292 -0.0804  0.3767
 2600TIP3   OH224371   2.202   1.265   7.437 -0.0954 -0.2481  0.1029
 2600TIP3    H124372   2.270   1.205   7.407  0.4406 -0.0333  0.8715
 2600TIP3    H224373   2.122   1.212   7.435 -0.0801 -0.2674 -1.5820
 2601TIP3   OH224374   5.438   6.077   7.124 -0.0180 -0.7499  0.3747
 2601TIP3    H124375   5.457   6.149   7.063 -0.0875 -0.2731  0.9170
 2601TIP3    H224376   5.461   5.998   7.074  4.5571 -0.2546  1.2422
 2602TIP3   OH224377   1.523   4.869   0.517  0.2750 -0.4399 -0.0853
 2602TIP3    H124378   1.555   4.914   0.438  0.8410 -1.4832 -0.4862
 2602TIP3    H224379   1.507   4.939   0.580  1.6354  0.2897 -0.4986
 2603TIP3   OH224380   4.560   1.658   2.596  0.1143  0.3626  0.0212
 2603TIP3    H124381   4.495   1.613   2.650  0.7543  0.2576  0.7221
 2603TIP3    H224382   4.644   1.631   2.633  0.5610  0.4996 -0.8695
 2604TIP3   OH224383   0.471   5.855   0.520 -0.2373  0.8829  0.2064
 2604TIP3    H124384   0.438   5.919   0.457 -2.1293  0.2779  0.5256
 2604TIP3    H224385   0.514   5.788   0.465 -0.6547  1.0519 -0.3345
 2605TIP3   OH224386   2.874   3.519   7.101 -0.0212 -0.5753 -0.1023
 2605TIP3    H124387   2.902   3.611   7.101 -2.4403  0.2741 -1.6993
 2605TIP3    H224388   2.895   3.488   7.013 -0.7593 -0.9969 -0.1387
 2606TIP3   OH224389   0.592   3.692   2.326 -0.0587 -0.0744 -0.1525
 2606TIP3    H124390   0.604   3.771   2.274 -0.8528  0.2881  0.1942
 2606TIP3    H224391   0.645   3.706   2.404 -0.7756  0.4457  0.2485
 2607TIP3   OH224392   5.942   1.739   6.765  0.4542  0.0849  0.4206
 2607TIP3    H124393   5.967   1.680   6.693  0.8701 -1.7782  1.9981
 2607TIP3    H224394   6.025   1.775   6.796  0.2263  1.3075 -0.3406
 2608TIP3   OH224395   2.907   3.203   8.892 -0.8997  0.0950  0.0993
 2608TIP3    H124396   2.951   3.140   8.949  0.9474  2.2799  1.2609
 2608TIP3    H224397   2.827   3.226   8.937 -0.1468  0.7360  1.1390
 2609TIP3   OH224398   3.106   5.604   7.172 -0.2738 -0.5506  0.4529
 2609TIP3    H124399   3.073   5.559   7.093 -0.4294  0.7622 -0.2584
 2609TIP3    H224400   3.075   5.550   7.244 -1.3201 -1.0513 -0.3385
 2610TIP3   OH224401   4.442   2.993   9.233  1.5478  0.1140  0.6256
 2610TIP3    H124402   4.493   2.917   9.205  1.8521  0.4611  0.2064
 2610TIP3    H224403   4.355   2.958   9.254  0.9050 -0.0337 -1.9501
 2611TIP3   OH224404   4.612   1.882   1.079 -0.2512 -0.7496  0.2349
 2611TIP3    H124405   4.517   1.887   1.093  0.0791  1.6710  2.2645
 2611TIP3    H224406   4.621   1.855   0.988 -3.0712  4.2843 -1.9229
 2612TIP3   OH224407   0.778   5.474   9.215 -0.1803  0.1511  0.5849
 2612TIP3    H124408   0.840   5.515   9.155 -0.1174  1.4897  1.5296
 2612TIP3    H224409   0.694   5.513   9.193 -0.3417 -0.1440  0.6712
 2613TIP3   OH224410   2.528   2.267   7.389 -0.0667 -0.2079  0.0646
 2613TIP3    H124411   2.469   2.250   7.315  0.1887  0.0660 -0.2071
 2613TIP3    H224412   2.563   2.354   7.372  0.3006 -0.3073  0.3021
 2614TIP3   OH224413   1.040   1.297   9.317  0.0820 -0.1724 -0.8133
 2614TIP3    H124414   1.043   1.390   9.291  0.3855  0.1456  0.3076
 2614TIP3    H224415   1.132   1.271   9.323  0.0236 -0.1749  0.1409
 2615TIP3   OH224416   2.003   2.639   9.112  0.4648  0.3908 -0.1263
 2615TIP3    H124417   2.066   2.656   9.041 -1.1661  0.0303 -1.7354
 2615TIP3    H224418   1.935   2.586   9.071 -0.2413 -0.3625  1.9050
 2616TIP3   OH224419   5.277   2.581   1.230 -0.6850  0.1683  0.3029
 2616TIP3    H124420   5.243   2.612   1.314  1.0191 -2.0380  1.8977
 2616TIP3    H224421   5.263   2.655   1.170  0.0101  2.6651  3.0210
 2617TIP3   OH224422   0.632   4.798   6.609  0.2068  0.4594 -0.0569
 2617TIP3    H124423   0.707   4.840   6.650 -0.0491  2.2595 -1.2985
 2617TIP3    H224424   0.670   4.743   6.540  0.4305  1.9898 -1.2267
 2618TIP3   OH224425   4.958   4.369   7.143  0.2820  0.0580 -0.3965
 2618TIP3    H124426   4.949   4.275   7.124  2.0623  0.1925 -2.2687
 2618TIP3    H224427   4.944   4.375   7.238  0.2609 -2.1109 -0.1927
 2619TIP3   OH224428   4.940   0.993   0.829  0.8226  0.2305  0.6136
 2619TIP3    H124429   4.935   0.899   0.843 -0.3513  0.2452  0.3838
 2619TIP3    H224430   5.027   1.018   0.862  2.1467 -1.2629 -1.5134
 2620TIP3   OH224431   2.432   1.329   1.343  0.5663 -0.4964  0.1406
 2620TIP3    H124432   2.365   1.332   1.411  0.9376 -1.5011  0.5771
 2620TIP3    H224433   2.451   1.235   1.332 -0.0528 -0.4383 -1.9283
 2621TIP3   OH224434   4.820   1.536   0.696  0.3357 -0.6211  0.3344
 2621TIP3    H124435   4.777   1.529   0.781 -0.3689 -0.1334  0.0253
 2621TIP3    H224436   4.771   1.477   0.639 -1.3878  1.5535 -0.5783
 2622TIP3   OH224437   1.341   5.064   0.953 -0.0070  0.2869 -0.5889
 2622TIP3    H124438   1.318   4.995   1.015  1.8143 -2.8603 -3.1112
 2622TIP3    H224439   1.256   5.098   0.923 -0.9386 -0.0958  1.4427
 2623TIP3   OH224440   5.201   4.051   1.060  0.3650  0.0357  0.0711
 2623TIP3    H124441   5.171   3.976   1.111  1.4509  0.6761  1.7444
 2623TIP3    H224442   5.264   4.095   1.117  1.6655  0.7948 -1.8627
 2624TIP3   OH224443   0.022   2.944   7.984  0.5426  0.0525  0.0340
 2624TIP3    H124444   0.009   3.014   7.920 -0.5435  0.4178  0.6218
 2624TIP3    H224445   0.109   2.959   8.019  0.0873  1.5067  0.6005
 2625TIP3   OH224446   1.283   5.871   1.398  0.0484  0.2162  0.3854
 2625TIP3    H124447   1.190   5.854   1.384 -0.1542  1.3166  0.2824
 2625TIP3    H224448   1.299   5.954   1.352  1.4649 -0.7923 -1.0245
 2626TIP3   OH224449   0.677   1.312   1.247 -0.1575  0.2836  0.4613
 2626TIP3    H124450   0.667   1.323   1.152  0.5688  0.0386  0.3510
 2626TIP3    H224451   0.628   1.232   1.267 -0.6002  0.5251  0.3484
 2627TIP3   OH224452   2.604   4.457   8.035  0.2023 -0.1932  0.3354
 2627TIP3    H124453   2.600   4.456   8.131 -0.6506 -0.4613  0.3024
 2627TIP3    H224454   2.528   4.509   8.009  0.4521 -0.0915 -0.1971
 2628TIP3   OH224455   1.584   2.603   0.186 -0.2846 -0.5208  0.3068
 2628TIP3    H124456   1.530   2.535   0.226 -1.7273  0.9781  1.0339
 2628TIP3    H224457   1.664   2.604   0.238 -0.3759 -1.4219  0.4831
 2629TIP3   OH224458   5.547   6.230   6.895  0.3157  0.3029  0.0396
 2629TIP3    H124459   5.513   6.318   6.912 -0.1772 -0.0378  0.8848
 2629TIP3    H224460   5.637   6.245   6.866 -0.4233  1.2099 -1.9745
 2630TIP3   OH224461   1.768   5.106   2.983 -0.1179  0.4536  0.0061
 2630TIP3    H124462   1.767   5.202   2.987  1.8314  0.5607 -0.6248
 2630TIP3    H224463   1.846   5.086   2.931 -0.6746 -1.4816 -0.1497
 2631TIP3   OH224464   4.689   3.630   8.574 -0.4018 -0.0708 -0.4492
 2631TIP3    H124465   4.696   3.615   8.668  0.8192 -2.2532 -0.8116
 2631TIP3    H224466   4.623   3.567   8.545  0.2481 -0.4138 -1.2248
 2632TIP3   OH224467   2.727   1.411   7.768  0.1993 -0.5045 -0.4338
 2632TIP3    H124468   2.683   1.409   7.683  0.2770 -1.5937 -0.4678
 2632TIP3    H224469   2.735   1.504   7.788 -0.3959 -0.2385 -1.3161
 2633TIP3   OH224470   3.911   1.666   6.918  0.5745  0.9152  0.0188
 2633TIP3    H124471   3.907   1.632   6.828 -0.6959  2.1145 -0.4118
 2633TIP3    H224472   3.984   1.728   6.916  0.9783  0.4539  0.0165
 2634TIP3   OH224473   6.056   4.168   1.732 -0.4388 -0.0861 -0.3084
 2634TIP3    H124474   6.022   4.191   1.819 -2.2480 -0.2861 -0.9081
 2634TIP3    H224475   6.150   4.157   1.745 -0.6082  0.2636  1.5430
 2635TIP3   OH224476   3.535   4.967   9.275  0.0462 -0.0210 -0.5312
 2635TIP3    H124477   3.534   4.883   9.321 -0.6403  0.4940  0.4418
 2635TIP3    H224478   3.485   4.951   9.194 -0.5802 -0.4117 -0.0743
 2636TIP3   OH224479   2.413   1.090   7.369 -0.0784 -0.6183 -0.7131
 2636TIP3    H124480   2.489   1.078   7.425 -0.3196 -0.3868 -0.3285
 2636TIP3    H224481   2.372   1.004   7.365  1.1436 -1.1797 -2.3372
 2637TIP3   OH224482   2.958   5.851   6.688  0.0838 -0.2350  0.1553
 2637TIP3    H124483   2.868   5.829   6.711  0.1665  0.2886  1.0299
 2637TIP3    H224484   2.963   5.836   6.594 -1.4823  1.5958 -0.2913
 2638TIP3   OH224485   5.038   0.738   0.917  0.5480 -0.3304  0.0382
 2638TIP3    H124486   5.097   0.811   0.933 -3.0320  2.7413  0.5643
 2638TIP3    H224487   5.024   0.698   1.003  0.3900  0.1745  0.2479
 2639TIP3   OH224488   3.588   2.754   1.829 -0.6340  0.1212 -0.3514
 2639TIP3    H124489   3.563   2.811   1.756 -1.4365  0.2426  0.0096
 2639TIP3    H224490   3.533   2.782   1.902 -0.1777 -0.3171  0.1760
 2640TIP3   OH224491   5.064   3.137   2.183 -0.0652  0.0240  0.2955
 2640TIP3    H124492   5.016   3.182   2.114 -0.3152 -0.1458  0.3606
 2640TIP3    H224493   5.109   3.065   2.138 -2.3300 -1.7343  0.7037
 2641TIP3   OH224494   5.542   6.307   7.252 -0.1276  0.4031 -0.1403
 2641TIP3    H124495   5.500   6.221   7.245 -0.0961  0.4840 -1.6144
 2641TIP3    H224496   5.635   6.289   7.238  0.0868  0.4982  1.0586
 2642TIP3   OH224497   4.242   2.698   0.320  0.1590 -0.3262 -0.2720
 2642TIP3    H124498   4.307   2.711   0.251  0.5042 -1.1501 -0.1209
 2642TIP3    H224499   4.236   2.783   0.364  2.6960 -0.6941  1.0443
 2643TIP3   OH224500   0.363   1.342   7.192  0.0988  0.0596  0.0449
 2643TIP3    H124501   0.441   1.382   7.154  1.5696 -4.1014 -1.9557
 2643TIP3    H224502   0.298   1.343   7.121 -1.1524  1.9417  1.1396
 2644TIP3   OH224503   4.956   0.630   0.200  0.0846  0.0018 -0.6043
 2644TIP3    H124504   4.881   0.653   0.254  0.4225  1.3818 -0.6934
 2644TIP3    H224505   4.984   0.545   0.234 -1.9819 -0.9383 -1.1081
 2645TIP3   OH224506   0.861   3.584   0.027 -0.6354  0.3454 -0.4842
 2645TIP3    H124507   0.789   3.623   0.076 -0.9687 -0.8990  0.0570
 2645TIP3    H224508   0.839   3.491   0.021  0.3447  0.1449 -1.3430
 2646TIP3   OH224509   3.471   2.559   9.082  0.0427  0.5070  0.6082
 2646TIP3    H124510   3.395   2.589   9.131 -1.1417  1.0769 -1.4761
 2646TIP3    H224511   3.445   2.474   9.046 -0.2636  1.4148 -1.4226
 2647TIP3   OH224512   2.255   6.048   9.041  0.7232  0.1487 -0.5208
 2647TIP3    H124513   2.327   6.108   9.059  0.3393 -0.0674  2.0968
 2647TIP3    H224514   2.294   5.979   8.988  1.9069  1.1162 -0.9461
 2648TIP3   OH224515   0.759   2.868   6.492  0.3078 -0.5704  0.1610
 2648TIP3    H124516   0.733   2.777   6.502 -1.2772 -0.0550  1.0361
 2648TIP3    H224517   0.703   2.902   6.423  3.1984 -1.0441 -2.6864
 2649TIP3   OH224518   2.958   3.574   1.758 -0.1982 -0.6918  0.3421
 2649TIP3    H124519   2.964   3.661   1.717 -2.4436 -0.7258 -0.1812
 2649TIP3    H224520   3.049   3.549   1.775  0.6673  0.4799 -2.1850
 2650TIP3   OH224521   0.582   1.327   0.193 -0.1936 -0.3680 -0.0647
 2650TIP3    H124522   0.658   1.344   0.137  0.2689 -1.8637  0.0605
 2650TIP3    H224523   0.610   1.255   0.250 -1.0833  0.2853  1.2525
 2651TIP3   OH224524   0.778   4.638   7.548 -0.0350  0.3122  0.3700
 2651TIP3    H124525   0.848   4.671   7.605  0.6922 -2.8555  1.5706
 2651TIP3    H224526   0.702   4.693   7.568  1.4858  2.3876  0.7497
 2652TIP3   OH224527   0.743   0.616   1.362 -0.0144  1.1291 -0.3704
 2652TIP3    H124528   0.829   0.652   1.339  0.6873 -0.1008  0.1959
 2652TIP3    H224529   0.763   0.532   1.403 -1.5328  0.5151 -0.8102
 2653TIP3   OH224530   4.033   4.398   1.446 -0.3833 -0.0395 -0.1022
 2653TIP3    H124531   4.091   4.440   1.509 -0.9205 -0.4404  0.6754
 2653TIP3    H224532   4.079   4.405   1.363 -0.6509  2.5866 -0.1375
 2654TIP3   OH224533   5.308   1.738   8.241  0.2559  0.4623  0.1167
 2654TIP3    H124534   5.321   1.766   8.332  0.8256 -0.5972  0.3757
 2654TIP3    H224535   5.361   1.798   8.189  0.3662  0.7278  0.5329
 2655TIP3   OH224536   2.671   6.413   9.175  0.3067 -0.2345 -0.2314
 2655TIP3    H124537   2.631   6.492   9.137  2.5600  1.7171  1.1239
 2655TIP3    H224538   2.733   6.384   9.107  0.0568 -0.3449 -0.4127
 2656TIP3   OH224539   6.309   2.412   7.770 -0.3557  0.3805 -0.0533
 2656TIP3    H124540   6.271   2.362   7.697 -0.6623 -0.7300  0.8380
 2656TIP3    H224541   6.234   2.457   7.809 -0.8869 -1.8344  1.7248
 2657TIP3   OH224542   3.273   4.400   1.033 -0.3870  0.3311 -0.2371
 2657TIP3    H124543   3.286   4.325   1.091  0.6573  0.9430  0.3472
 2657TIP3    H224544   3.296   4.368   0.946 -1.4068 -0.4334 -0.2474
 2658TIP3   OH224545   1.521   0.798   6.248  0.4240 -0.5334 -0.0122
 2658TIP3    H124546   1.437   0.752   6.246 -0.1138  0.4025  0.4572
 2658TIP3    H224547   1.500   0.887   6.222  1.4010 -0.4626 -0.5779
 2659TIP3   OH224548   0.420   2.804   2.648 -0.0471 -0.1058 -0.0184
 2659TIP3    H124549   0.400   2.729   2.705 -0.0595  1.4220  2.1083
 2659TIP3    H224550   0.348   2.865   2.662  1.3957  1.5572  0.6495
 2660TIP3   OH224551   1.707   1.752   0.586  0.1956  0.1103 -0.3472
 2660TIP3    H124552   1.713   1.669   0.634 -1.0684 -0.1490 -0.6205
 2660TIP3    H224553   1.670   1.729   0.502 -1.6035  1.1481  0.1136
 2661TIP3   OH224554   2.201   5.904   1.070  0.0499 -0.4238 -0.0867
 2661TIP3    H124555   2.216   5.813   1.096 -0.9940 -1.0850 -1.6716
 2661TIP3    H224556   2.130   5.899   1.006  0.3916  1.4508 -0.6515
 2662TIP3   OH224557   5.699   3.512   0.517 -0.0809 -0.0959 -0.5798
 2662TIP3    H124558   5.754   3.536   0.442  0.3787  0.2342 -0.1450
 2662TIP3    H224559   5.652   3.592   0.539  0.4613  0.0665  0.0412
 2663TIP3   OH224560   2.489   5.538   3.316 -0.0495  0.2009  0.0793
 2663TIP3    H124561   2.505   5.595   3.391 -1.8476 -1.5055  1.8810
 2663TIP3    H224562   2.575   5.498   3.299  1.0343  2.6451 -0.6612
 2664TIP3   OH224563   3.910   2.898   7.360  0.1313 -0.0397 -0.1340
 2664TIP3    H124564   3.942   2.920   7.447 -0.0751 -2.2324  0.5353
 2664TIP3    H224565   3.981   2.926   7.301  1.2004 -0.4561  0.9198
 2665TIP3   OH224566   4.147   1.879   0.137 -0.1478  0.3140  0.0987
 2665TIP3    H124567   4.189   1.916   0.059  0.8751  1.6446  1.2414
 2665TIP3    H224568   4.201   1.908   0.210 -1.3037 -0.5812  1.3634
 2666TIP3   OH224569   1.308   2.212   9.227 -0.2193 -0.5906  0.1848
 2666TIP3    H124570   1.311   2.243   9.136  3.0947 -1.1085  0.0057
 2666TIP3    H224571   1.305   2.117   9.220  2.0864 -0.7285  0.5300
 2667TIP3   OH224572   2.736   4.398   0.501 -0.4866 -0.0422 -0.0631
 2667TIP3    H124573   2.820   4.439   0.482 -0.5361  0.4619  0.7417
 2667TIP3    H224574   2.745   4.368   0.592 -0.4905 -1.7286 -0.5855
 2668TIP3   OH224575   5.801   2.754   0.615 -0.1601 -0.2338 -0.0045
 2668TIP3    H124576   5.892   2.726   0.607  0.1403  0.8410 -0.6548
 2668TIP3    H224577   5.764   2.742   0.528 -0.6857 -0.7912  0.2885
 2669TIP3   OH224578   4.771   5.358   8.083  0.5128  0.0312  0.2374
 2669TIP3    H124579   4.838   5.419   8.052 -1.0124  0.6896 -2.0930
 2669TIP3    H224580   4.750   5.305   8.006 -0.7151 -1.0365  1.2577
 2670TIP3   OH224581   6.204   2.087   1.841  0.5510 -0.1077  0.1648
 2670TIP3    H124582   6.221   2.166   1.790  0.9648  0.0419  0.5296
 2670TIP3    H224583   6.117   2.059   1.813  1.7304 -1.4884 -2.5391
 2671TIP3   OH224584   2.370   0.787   3.197  0.0223 -0.8071  0.2199
 2671TIP3    H124585   2.331   0.757   3.116  0.8665 -0.4391 -0.3362
 2671TIP3    H224586   2.315   0.861   3.224 -0.6180 -1.3097  0.3163
 2672TIP3   OH224587   0.693   3.170   6.696  0.1468 -0.2753  0.0080
 2672TIP3    H124588   0.634   3.095   6.688 -3.0276  1.8246  1.5959
 2672TIP3    H224589   0.654   3.237   6.639  0.6228  1.3724  1.5251
 2673TIP3   OH224590   5.296   3.569   8.406  0.0565  0.4548  0.7823
 2673TIP3    H124591   5.306   3.636   8.339 -1.2873  0.6024  0.6993
 2673TIP3    H224592   5.345   3.603   8.481 -0.7584  1.6334  0.8053
 2674TIP3   OH224593   1.545   2.565   7.587 -0.0100 -0.7322  0.3889
 2674TIP3    H124594   1.586   2.486   7.623  0.0275 -0.3819  1.1571
 2674TIP3    H224595   1.523   2.617   7.665  2.1925  1.1337 -0.1425
 2675TIP3   OH224596   0.606   0.092   7.309 -0.0654  0.3620  0.1200
 2675TIP3    H124597   0.605   0.179   7.268  1.2723  0.2195 -0.2543
 2675TIP3    H224598   0.514   0.073   7.325 -0.3753  1.9294  0.3967
 2676TIP3   OH224599   4.982   3.722   2.360  0.0793 -0.2776  0.7750
 2676TIP3    H124600   4.918   3.760   2.299  3.1227  0.7398 -2.1310
 2676TIP3    H224601   4.993   3.632   2.330  2.0869  0.4200 -0.8389
 2677TIP3   OH224602   3.316   3.323   0.304 -0.0470  0.5073 -0.1343
 2677TIP3    H124603   3.347   3.343   0.216 -0.3852 -0.2856 -0.4468
 2677TIP3    H224604   3.274   3.403   0.334  1.1099  1.1694 -0.2175
 2678TIP3   OH224605   0.438   0.717   8.435  0.7638  0.3260  0.2794
 2678TIP3    H124606   0.388   0.730   8.355 -1.4142 -1.7681  1.1542
 2678TIP3    H224607   0.371   0.706   8.503  2.4498 -0.9045  1.8389
 2679TIP3   OH224608   2.981   0.852   0.102 -0.2494  0.1833 -0.2947
 2679TIP3    H124609   2.995   0.943   0.078 -0.3688  0.0819 -0.7521
 2679TIP3    H224610   2.977   0.853   0.198  0.4642  0.5534 -0.2665
 2680TIP3   OH224611   4.845   3.796   7.552  0.7443  0.0379  0.6557
 2680TIP3    H124612   4.849   3.728   7.484  0.2756  1.2055 -0.5865
 2680TIP3    H224613   4.928   3.788   7.598  0.7976 -1.2162  0.3636
 2681TIP3   OH224614   1.015   4.189   0.899 -0.7762 -0.1594 -0.3021
 2681TIP3    H124615   0.933   4.155   0.936 -0.3743  1.5692  2.4686
 2681TIP3    H224616   0.994   4.279   0.874 -0.1589 -0.2837 -1.3086
 2682TIP3   OH224617   6.338   4.091   2.104 -0.2368  0.9891 -0.0666
 2682TIP3    H124618   6.428   4.109   2.077 -0.7213  0.9355 -1.8445
 2682TIP3    H224619   6.297   4.177   2.111 -0.3811  0.9583 -0.5143
 2683TIP3   OH224620   0.955   1.620   0.089 -0.3761 -0.3025  0.5602
 2683TIP3    H124621   0.904   1.699   0.069  0.3819  0.6877  2.2845
 2683TIP3    H224622   0.960   1.619   0.185  1.2681 -1.3926  0.4916
 2684TIP3   OH224623   0.720   0.962   1.176  0.2343  0.2252  0.3794
 2684TIP3    H124624   0.717   0.936   1.268 -2.7183  1.2907  0.6685
 2684TIP3    H224625   0.632   0.992   1.156  0.8311  0.2261 -2.7820
 2685TIP3   OH224626   1.003   3.570   2.933  0.4605 -0.3063 -0.0771
 2685TIP3    H124627   1.028   3.662   2.947 -0.6602 -0.1136  0.7989
 2685TIP3    H224628   0.937   3.553   3.000 -1.0014 -1.0797 -1.6323
 2686TIP3   OH224629   6.389   3.979   7.204  0.3021  0.1530 -0.3339
 2686TIP3    H124630   6.462   4.011   7.151  1.1924 -0.7388  0.3208
 2686TIP3    H224631   6.390   3.884   7.192 -0.1072  0.0334  0.4895
 2687TIP3   OH224632   4.665   1.055   0.366  0.1049  0.3188  0.7971
 2687TIP3    H124633   4.710   1.005   0.434 -1.4813 -2.4163  0.0219
 2687TIP3    H224634   4.589   1.092   0.409 -0.1098 -0.1730  0.8513
 2688TIP3   OH224635   4.405   1.602   8.962  0.1711  0.0268 -0.2800
 2688TIP3    H124636   4.317   1.573   8.939 -0.3990  0.6765  0.9666
 2688TIP3    H224637   4.398   1.697   8.971  0.7730 -0.0004  0.6855
 2689TIP3   OH224638   5.362   5.392   7.491 -0.2239 -0.5510 -0.8802
 2689TIP3    H124639   5.281   5.433   7.464 -0.1113  1.1594  1.1491
 2689TIP3    H224640   5.415   5.387   7.410 -0.5281  2.6927 -1.3929
 2690TIP3   OH224641   3.584   4.469   1.872 -0.1123  0.1659 -0.2983
 2690TIP3    H124642   3.507   4.506   1.829  0.6726  0.7298 -1.2534
 2690TIP3    H224643   3.658   4.497   1.818  0.9375  1.0088  1.4532
 2691TIP3   OH224644   6.056   5.194   8.432 -0.4082 -0.6738  0.1869
 2691TIP3    H124645   6.024   5.106   8.411 -0.6061 -0.5396 -0.0954
 2691TIP3    H224646   6.142   5.199   8.391 -0.3759 -0.7553  0.2456
 2692TIP3   OH224647   1.288   5.981   2.475 -0.0523  0.4747  0.3382
 2692TIP3    H124648   1.337   6.062   2.491 -1.2333  1.3337 -0.2174
 2692TIP3    H224649   1.331   5.915   2.529  1.4569  1.2817  0.1569
 2693TIP3   OH224650   3.845   0.322   1.410 -0.6213  0.1231 -0.3895
 2693TIP3    H124651   3.933   0.283   1.405  0.0959  1.6982 -0.8605
 2693TIP3    H224652   3.801   0.289   1.332 -0.3801 -0.5242 -0.2591
 2694TIP3   OH224653   1.037   3.182   7.385  0.1366 -0.1011  0.0024
 2694TIP3    H124654   1.059   3.164   7.476  0.1069  0.6816  0.1714
 2694TIP3    H224655   1.081   3.266   7.366  0.3287 -0.3683 -0.7688
 2695TIP3   OH224656   4.564   4.599   0.028 -0.4266 -0.3600  0.7231
 2695TIP3    H124657   4.532   4.667  -0.032  0.3671 -0.8184 -0.2482
 2695TIP3    H224658   4.514   4.613   0.108 -0.9327  0.7900  0.2358
 2696TIP3   OH224659   2.689   4.193   7.295 -0.6031 -0.0420  0.2533
 2696TIP3    H124660   2.611   4.195   7.240 -2.4636  0.0918  2.6896
 2696TIP3    H224661   2.664   4.139   7.370  0.8739  1.7098  2.1315
 2697TIP3   OH224662   3.327   4.384   8.167 -0.1436 -0.1180 -0.1384
 2697TIP3    H124663   3.292   4.365   8.080  2.6861  2.1074 -1.9375
 2697TIP3    H224664   3.249   4.398   8.221 -2.0540  0.0270 -2.7103
 2698TIP3   OH224665   4.156   0.053   6.542 -0.5965 -0.3945 -0.0108
 2698TIP3    H124666   4.225   0.118   6.527 -1.0857  0.3602  0.8864
 2698TIP3    H224667   4.200  -0.018   6.589 -0.4227  0.0907  0.5781
 2699TIP3   OH224668   1.297   5.990   9.161  0.4691  0.0632  0.3588
 2699TIP3    H124669   1.309   5.962   9.071  0.2862  2.3263 -0.4280
 2699TIP3    H224670   1.382   6.026   9.187 -0.0082  1.1710  0.4174
 2700TIP3   OH224671   0.327   3.362   0.779 -0.1376  0.4341 -0.2130
 2700TIP3    H124672   0.364   3.289   0.829  3.3023  1.6418 -0.6860
 2700TIP3    H224673   0.295   3.322   0.698 -1.5815 -0.9307  0.9793
 2701TIP3   OH224674   4.141   0.070   2.022 -0.3850 -0.0740 -0.4030
 2701TIP3    H124675   4.153   0.140   1.958 -0.9807 -1.9797 -2.7564
 2701TIP3    H224676   4.200  -0.000   1.992 -2.6828 -2.0674 -0.5371
 2702TIP3   OH224677   3.925   5.372   2.865 -0.1190 -0.0821 -0.4871
 2702TIP3    H124678   3.872   5.445   2.834  1.0333  1.5847  1.2796
 2702TIP3    H224679   3.865   5.297   2.866 -1.8651  1.2691 -0.4781
 2703TIP3   OH224680   4.997   0.708   8.999 -0.0504  0.3739 -0.5308
 2703TIP3    H124681   4.914   0.659   8.998  1.3792 -2.2426 -1.3831
 2703TIP3    H224682   5.036   0.688   9.084  0.6373 -0.1793 -0.9646
 2704TIP3   OH224683   3.529   2.829   8.236  0.1296  0.7326 -0.3278
 2704TIP3    H124684   3.506   2.738   8.253 -0.0239  0.4342 -1.9973
 2704TIP3    H224685   3.529   2.870   8.323 -0.0319 -0.7858  0.4265
 2705TIP3   OH224686   1.157   4.516   1.474  0.5899 -0.0783  0.7312
 2705TIP3    H124687   1.173   4.472   1.558 -0.4984 -0.4725  0.7522
 2705TIP3    H224688   1.123   4.447   1.417  1.0999  0.2403  0.0273
 2706TIP3   OH224689   4.279   1.285   7.486  0.1514 -0.5962 -0.0858
 2706TIP3    H124690   4.247   1.200   7.518 -0.6425 -0.8209 -1.3752
 2706TIP3    H224691   4.301   1.268   7.394  1.8286  0.1420  0.1560
 2707TIP3   OH224692   2.597   3.579   0.712  0.0919  0.0502 -0.1045
 2707TIP3    H124693   2.630   3.668   0.720  0.1651  0.1154 -0.9980
 2707TIP3    H224694   2.639   3.530   0.782  0.6126  0.5576 -0.0628
 2708TIP3   OH224695   2.301   1.444   6.954 -0.2391 -0.6613  0.1374
 2708TIP3    H124696   2.335   1.380   7.016 -0.7170  0.3924  1.5426
 2708TIP3    H224697   2.276   1.519   7.008 -0.0946  0.5523 -1.4008
 2709TIP3   OH224698   4.288   4.283   0.509  0.1522  0.2653 -0.1528
 2709TIP3    H124699   4.214   4.298   0.451  0.7573  0.6706 -0.8296
 2709TIP3    H224700   4.353   4.239   0.454  0.2466 -0.5150  0.5564
 2710TIP3   OH224701   1.732   1.816   8.468 -0.6948  0.2905  0.4685
 2710TIP3    H124702   1.642   1.833   8.494 -0.2386 -0.0478  2.4388
 2710TIP3    H224703   1.779   1.897   8.488 -0.5383  0.4453 -0.4860
 2711TIP3   OH224704   4.580   2.597   1.624 -0.1068 -0.0020  0.2826
 2711TIP3    H124705   4.638   2.606   1.548  0.5193  1.7719  0.9210
 2711TIP3    H224706   4.495   2.576   1.586  0.5319 -0.8071 -0.7933
 2712TIP3   OH224707   6.464   2.370   8.178 -0.2661  0.1553 -0.4180
 2712TIP3    H124708   6.399   2.300   8.176  0.9441 -0.9780 -1.0775
 2712TIP3    H224709   6.443   2.419   8.258  0.7751 -2.8559  1.8749
 2713TIP3   OH224710   0.938   2.875   9.005 -0.4953  0.0108 -0.1625
 2713TIP3    H124711   0.957   2.922   9.087 -1.2947 -0.2451  0.1820
 2713TIP3    H224712   1.008   2.901   8.946 -2.4136  4.0025 -0.9818
 2714TIP3   OH224713   6.027   2.785   2.587 -0.1977  0.0396 -0.5846
 2714TIP3    H124714   6.072   2.850   2.534  3.0086 -0.8389  0.7945
 2714TIP3    H224715   6.085   2.708   2.586 -0.0986 -0.2117  3.6473
 2715TIP3   OH224716   2.890   2.272   8.829  0.1091  0.2944 -0.1694
 2715TIP3    H124717   2.826   2.232   8.888 -0.6805  1.4074 -0.2183
 2715TIP3    H224718   2.860   2.363   8.821  1.3129  0.6518 -0.7591
 2716TIP3   OH224719   0.765   4.757   8.094 -0.3536  0.7726 -0.2451
 2716TIP3    H124720   0.725   4.682   8.050 -0.5886 -1.4232  3.3170
 2716TIP3    H224721   0.844   4.776   8.043 -0.0355 -2.2431 -1.0542
 2717TIP3   OH224722   0.949   5.857   1.936 -0.9004 -0.6892 -0.0251
 2717TIP3    H124723   0.952   5.800   1.859  0.4016  2.9623 -3.0255
 2717TIP3    H224724   1.041   5.871   1.959 -0.9570  1.8395 -0.9426
 2718TIP3   OH224725   0.894   2.437   1.353 -1.0225 -0.0439  0.0747
 2718TIP3    H124726   0.895   2.530   1.330  0.3231  0.4418  1.8769
 2718TIP3    H224727   0.877   2.436   1.447  2.8571 -1.3043  0.9606
 2719TIP3   OH224728   0.417   4.717   1.571  0.4957  0.3433  0.0631
 2719TIP3    H124729   0.330   4.702   1.535  0.4668 -0.3910  0.4370
 2719TIP3    H224730   0.425   4.655   1.644  0.5304  1.8174  1.3794
 2720TIP3   OH224731   0.145   3.855   7.021 -0.0668 -0.2573 -0.3538
 2720TIP3    H124732   0.123   3.923   6.958 -0.5892 -3.1127 -3.5753
 2720TIP3    H224733   0.238   3.839   7.008  0.5880  1.1658  1.9613
 2721TIP3   OH224734   2.406   0.574   7.427 -0.2296  0.0786  0.2119
 2721TIP3    H124735   2.463   0.500   7.406 -0.0112  0.5971 -1.1073
 2721TIP3    H224736   2.318   0.539   7.419 -0.2211  0.5128 -2.9479
 2722TIP3   OH224737   0.668   4.570   7.930  0.6055 -0.3664  0.2991
 2722TIP3    H124738   0.652   4.520   7.850 -1.4048 -0.4600  0.7017
 2722TIP3    H224739   0.698   4.504   7.993  1.4075 -0.4306 -0.1391
 2723TIP3   OH224740   4.892   5.483   1.787  0.2623  0.1844  0.3816
 2723TIP3    H124741   4.807   5.457   1.752  0.0001 -0.0756  1.1866
 2723TIP3    H224742   4.899   5.576   1.766 -0.1767  0.1829  0.2114
 2724TIP3   OH224743   5.764   4.648   8.512 -0.0678 -0.7063 -0.2235
 2724TIP3    H124744   5.716   4.697   8.580 -1.7765 -1.6626 -0.6749
 2724TIP3    H224745   5.836   4.606   8.559 -1.0303 -1.0955  0.9700
 2725TIP3   OH224746   5.627   0.094   1.112 -0.2474  0.3136  0.2860
 2725TIP3    H124747   5.621   0.001   1.133  0.1700  0.1667 -0.2212
 2725TIP3    H224748   5.686   0.130   1.178 -0.1920  0.1668  0.3163
 2726TIP3   OH224749   2.740   0.999   6.747  0.2766  0.1375  0.0406
 2726TIP3    H124750   2.826   1.012   6.707  0.7934 -2.1653  0.2695
 2726TIP3    H224751   2.689   0.955   6.680  0.1785 -0.9990  0.8418
 2727TIP3   OH224752   4.557   1.811   1.534 -0.2464 -0.0912 -0.4988
 2727TIP3    H124753   4.529   1.762   1.457  0.1782 -0.8342 -0.1915
 2727TIP3    H224754   4.632   1.762   1.568  0.0204  0.6224 -0.0233
 2728TIP3   OH224755   1.792   5.438   8.637  0.2297 -0.1376 -0.4658
 2728TIP3    H124756   1.719   5.424   8.577  1.0482 -0.4003 -1.4291
 2728TIP3    H224757   1.828   5.523   8.611 -0.0115  0.2132  0.3174
 2729TIP3   OH224758   4.314   6.107   8.832 -0.1792 -0.3049  0.3179
 2729TIP3    H124759   4.219   6.123   8.839  0.1802  1.4790  2.2315
 2729TIP3    H224760   4.330   6.100   8.738 -1.9662  1.0694 -0.1559
 2730TIP3   OH224761   5.432   2.821   7.061  0.8129 -0.2708 -0.3130
 2730TIP3    H124762   5.429   2.916   7.066 -0.5493 -0.3415  1.2598
 2730TIP3    H224763   5.443   2.802   6.968 -2.1713  1.4124 -1.1467
 2731TIP3   OH224764   6.266   5.504   9.278 -0.4670 -0.1550 -0.6000
 2731TIP3    H124765   6.260   5.413   9.305 -1.6300  0.1579  0.2445
 2731TIP3    H224766   6.360   5.519   9.265 -0.3555 -1.8912 -2.3148
 2732TIP3   OH224767   0.588   4.349   1.569 -0.1032 -0.4685 -0.0327
 2732TIP3    H124768   0.528   4.389   1.506 -0.0588  0.3976  0.4644
 2732TIP3    H224769   0.582   4.404   1.647  0.0083 -1.3989  0.6515
 2733TIP3   OH224770   1.820   1.042   6.401  0.0979  0.0346  0.3330
 2733TIP3    H124771   1.757   0.989   6.450  0.0039  0.4607  0.6896
 2733TIP3    H224772   1.766   1.102   6.350  0.2061 -0.0353  0.1366
 2734TIP3   OH224773   2.393   1.536   1.728  0.1128  0.3501 -0.4382
 2734TIP3    H124774   2.307   1.540   1.688  0.1087  2.0355 -0.3409
 2734TIP3    H224775   2.454   1.540   1.654  0.0991  2.8239 -0.3895
 2735TIP3   OH224776   3.694   2.108   3.005  0.9880 -0.0459 -0.0670
 2735TIP3    H124777   3.685   2.182   2.945  1.0015  1.4480  1.6811
 2735TIP3    H224778   3.783   2.076   2.991  0.8353 -0.0458 -1.1495
 2736TIP3   OH224779   1.996   3.671   1.063 -0.6353 -0.1938 -0.0113
 2736TIP3    H124780   1.949   3.754   1.059  0.4732  0.4242 -0.4203
 2736TIP3    H224781   2.055   3.672   0.988 -0.2368 -1.1241  0.2693
 2737TIP3   OH224782   2.503   4.571   1.616  0.0822 -0.9220 -0.3501
 2737TIP3    H124783   2.425   4.571   1.561  1.1168  1.5588 -2.0058
 2737TIP3    H224784   2.576   4.557   1.555  1.1870  0.9063  0.4570
 2738TIP3   OH224785   3.158   0.790   8.188  0.2731 -0.0229 -0.3173
 2738TIP3    H124786   3.131   0.833   8.269 -1.6820 -0.8355 -0.4923
 2738TIP3    H224787   3.138   0.854   8.120 -1.2866 -0.6254 -0.4471
 2739TIP3   OH224788   4.994   0.833   2.201 -0.3423  0.1871 -0.6211
 2739TIP3    H124789   5.033   0.750   2.176 -0.0360  0.5635 -1.4214
 2739TIP3    H224790   4.929   0.810   2.268  0.7423 -0.5281  0.2361
 2740TIP3   OH224791   5.797   5.724   1.581  0.0102  0.2634 -0.4382
 2740TIP3    H124792   5.829   5.812   1.562 -0.1091  1.0781  2.6705
 2740TIP3    H224793   5.706   5.724   1.549  0.6483  0.4926 -2.3631
 2741TIP3   OH224794   3.791   5.335   0.068 -0.1884 -0.0903  0.2934
 2741TIP3    H124795   3.779   5.261   0.008 -0.1611 -1.5726  2.0095
 2741TIP3    H224796   3.702   5.357   0.097 -0.2039  0.6276 -0.2697
 2742TIP3   OH224797   2.572   0.344   8.151  0.5118 -0.0641 -0.0873
 2742TIP3    H124798   2.538   0.380   8.234  1.9080  1.1277 -0.0008
 2742TIP3    H224799   2.546   0.252   8.153  3.6905 -1.1262  3.5010
 2743TIP3   OH224800   1.102   2.941   1.300 -0.1783 -1.0432  0.0473
 2743TIP3    H124801   1.024   2.911   1.254 -0.6006 -1.4426  1.0079
 2743TIP3    H224802   1.072   2.964   1.387  0.7861 -1.2218  0.4449
 2744TIP3   OH224803   4.571   1.007   6.543 -0.2875 -0.2192 -0.4893
 2744TIP3    H124804   4.635   1.026   6.474 -1.8063  0.1678 -1.8470
 2744TIP3    H224805   4.487   1.004   6.498 -1.2514 -0.7353  1.2427
 2745TIP3   OH224806   2.955   3.776   7.630 -0.4510  0.5734 -0.0321
 2745TIP3    H124807   2.997   3.789   7.715 -2.3540 -0.4746  1.1573
 2745TIP3    H224808   3.019   3.808   7.566  2.3789 -1.3782  1.5603
 2746TIP3   OH224809   3.122   3.779   7.417 -0.1059 -0.2820 -0.1527
 2746TIP3    H124810   3.053   3.813   7.360  0.7528  0.4340 -0.7856
 2746TIP3    H224811   3.188   3.847   7.418 -0.4369  0.1020  2.3996
 2747TIP3   OH224812   5.211   0.559   1.885 -0.6327  0.1261  0.0037
 2747TIP3    H124813   5.292   0.518   1.853  0.0738  1.7327 -0.3625
 2747TIP3    H224814   5.229   0.578   1.977 -0.5912  0.4769 -0.0762
 2748TIP3   OH224815   5.135   6.024   7.523 -0.3733 -0.3653  0.5780
 2748TIP3    H124816   5.223   6.048   7.496 -0.6440  0.7651  0.6512
 2748TIP3    H224817   5.081   6.042   7.446 -0.6688 -0.2168  0.8176
 2749TIP3   OH224818   0.784   3.662   8.670  0.9617  0.0883 -0.0429
 2749TIP3    H124819   0.794   3.568   8.685  0.3065  0.1987  1.2316
 2749TIP3    H224820   0.691   3.674   8.652  1.5841  0.0143 -4.3133
 2750TIP3   OH224821   5.218   4.787   2.700  0.2162 -0.1503  0.2232
 2750TIP3    H124822   5.301   4.794   2.747  1.6988 -2.0312 -1.9163
 2750TIP3    H224823   5.175   4.710   2.737  1.4460 -1.7140 -1.4284
 2751TIP3   OH224824   1.509   3.708   7.300  0.2465 -0.3580  0.1279
 2751TIP3    H124825   1.431   3.712   7.354  0.8567  0.0602  0.9898
 2751TIP3    H224826   1.545   3.620   7.317 -0.0701 -0.5848 -0.3372
 2752TIP3   OH224827   5.493   1.711   0.788  0.8269 -0.3646 -0.1373
 2752TIP3    H124828   5.463   1.707   0.878 -2.2110  1.5776 -0.9162
 2752TIP3    H224829   5.464   1.629   0.749  0.0991 -0.2259  0.1085
 2753TIP3   OH224830   4.997   0.685   8.414  0.1219  0.3057  0.1189
 2753TIP3    H124831   5.069   0.744   8.391  0.7304 -0.6314 -0.4570
 2753TIP3    H224832   4.965   0.719   8.498  2.5045 -0.3666  1.3926
 2754TIP3   OH224833   3.738   6.352   0.518  0.3139 -0.1085  0.3055
 2754TIP3    H124834   3.809   6.311   0.470 -0.9388  0.1674 -1.9430
 2754TIP3    H224835   3.665   6.291   0.510  0.3659 -0.6618  3.0521
 2755TIP3   OH224836   2.383   0.643   6.787 -0.3616  0.3475 -0.1421
 2755TIP3    H124837   2.383   0.583   6.712 -0.0224  0.2895 -0.0991
 2755TIP3    H224838   2.304   0.621   6.836  0.5377 -1.1416  0.7257
 2756TIP3   OH224839   0.404   2.631   7.645 -0.4079  0.1791 -0.2817
 2756TIP3    H124840   0.414   2.715   7.600 -0.3981  0.5285  0.3615
 2756TIP3    H224841   0.317   2.634   7.683 -1.2093 -0.9183 -1.8894
 2757TIP3   OH224842   1.296   0.696   7.013  0.2734  0.4798 -0.2949
 2757TIP3    H124843   1.314   0.789   7.008  1.9062  0.2027 -0.0201
 2757TIP3    H224844   1.323   0.671   7.101  3.1654 -0.8653 -1.4393
 2758TIP3   OH224845   4.375   5.474   7.786 -0.4026 -0.7670  0.0453
 2758TIP3    H124846   4.391   5.567   7.803 -1.7507 -0.5948  0.4903
 2758TIP3    H224847   4.445   5.449   7.725 -0.5301  0.7614 -0.7891
 2759TIP3   OH224848   4.441   1.133   2.943 -0.1327 -0.4943 -0.3545
 2759TIP3    H124849   4.380   1.206   2.937  1.6593  1.3352  1.8429
 2759TIP3    H224850   4.398   1.070   3.001 -0.6878 -0.0338 -0.2592
 2760TIP3   OH224851   2.507   1.881   7.327 -0.1008  0.3832  1.3500
 2760TIP3    H124852   2.504   1.787   7.310 -0.0726  0.7246 -0.7510
 2760TIP3    H224853   2.587   1.894   7.378  0.1199 -0.6736  1.2889
 2761TIP3   OH224854   2.626   1.027   7.509  0.5639  0.1947 -0.1403
 2761TIP3    H124855   2.703   1.017   7.564 -0.0287 -1.1183  0.4920
 2761TIP3    H224856   2.636   0.959   7.441  1.3774  1.8973 -1.8154
 2762TIP3   OH224857   5.985   3.150   1.464  0.0719  0.4768  0.0449
 2762TIP3    H124858   5.963   3.170   1.555 -2.7018  0.5568 -0.5248
 2762TIP3    H224859   6.061   3.093   1.469  0.2442  0.8097  2.3738
 2763TIP3   OH224860   0.193  -0.002   0.874 -0.4662 -0.1349  0.5128
 2763TIP3    H124861   0.131  -0.023   0.944 -1.3489  1.7919  0.3539
 2763TIP3    H224862   0.244   0.071   0.909  1.8437 -1.7259  0.6728
 2764TIP3   OH224863   3.197   5.113   0.264  0.5357  0.2244  0.0678
 2764TIP3    H124864   3.206   5.204   0.293 -0.4363  0.3289  0.0812
 2764TIP3    H224865   3.139   5.073   0.329 -1.4619  0.3952 -1.5130
 2765TIP3   OH224866   1.262   0.477   9.397 -0.0162 -0.6676 -0.0707
 2765TIP3    H124867   1.272   0.408   9.462  0.9656 -1.5246 -1.0781
 2765TIP3    H224868   1.297   0.439   9.316 -0.5990  0.5853 -0.9485
 2766TIP3   OH224869   2.142   3.556   8.643 -0.3491  0.1882 -0.0168
 2766TIP3    H124870   2.186   3.473   8.627 -1.2131 -0.8330  2.5029
 2766TIP3    H224871   2.054   3.544   8.609 -0.9014 -0.4911  1.5485
 2767TIP3   OH224872   3.314   3.029   7.337  0.0946  0.0676  0.2935
 2767TIP3    H124873   3.269   3.039   7.421  2.6918 -1.5835  1.9969
 2767TIP3    H224874   3.406   3.046   7.356  1.0081 -1.9440 -1.8505
 2768TIP3   OH224875   0.109   2.330   7.918  0.0750  0.1300  0.3416
 2768TIP3    H124876   0.031   2.356   7.869  1.7145 -0.5081 -2.8883
 2768TIP3    H224877   0.090   2.355   8.009 -1.6829  5.1148 -1.0789
 2769TIP3   OH224878   4.419   5.558   0.654  0.4079  0.1171 -0.4445
 2769TIP3    H124879   4.339   5.577   0.703 -0.9216  1.3796 -2.9438
 2769TIP3    H224880   4.416   5.463   0.641  1.4328 -0.4917  2.7591
 2770TIP3   OH224881   4.485   5.585   8.497 -0.1476 -0.8594  0.0170
 2770TIP3    H124882   4.483   5.492   8.516  1.2197 -1.1584 -1.1091
 2770TIP3    H224883   4.414   5.622   8.549  1.2384 -2.0392  3.0186
 2771TIP3   OH224884   5.257   6.031   1.927 -0.2679  0.3703 -0.2646
 2771TIP3    H124885   5.352   6.035   1.916 -0.5171  0.6488 -3.0490
 2771TIP3    H224886   5.230   5.955   1.874 -1.5508 -0.0936  0.9854
 2772TIP3   OH224887   3.988   3.236   0.012 -0.2211 -0.2235  0.8069
 2772TIP3    H124888   4.007   3.185  -0.067 -0.0543  1.9609 -0.6425
 2772TIP3    H224889   4.020   3.181   0.083  0.7697 -1.7487 -0.7129
 2773TIP3   OH224890   1.590   3.144   6.796  0.2190  0.0612  0.1317
 2773TIP3    H124891   1.647   3.089   6.849  2.4643  1.6183 -0.5249
 2773TIP3    H224892   1.637   3.227   6.788 -0.9900  0.5993 -2.5239
 2774TIP3   OH224893   0.619   6.347   8.346  0.3233  0.1884 -0.4697
 2774TIP3    H124894   0.622   6.417   8.280 -0.5611  0.7233  0.0317
 2774TIP3    H224895   0.538   6.300   8.327  0.8465 -0.6305 -0.7175
 2775TIP3   OH224896   2.104   3.708   2.310  0.3167  0.1311 -0.2653
 2775TIP3    H124897   2.050   3.770   2.359  1.9398 -0.2359  2.1839
 2775TIP3    H224898   2.178   3.760   2.279  0.3549 -0.0701 -0.5149
 2776TIP3   OH224899   0.296   5.557   7.136 -0.3729 -0.4558  0.8031
 2776TIP3    H124900   0.211   5.583   7.173 -1.5840 -0.2638 -1.8715
 2776TIP3    H224901   0.322   5.632   7.082 -0.6408 -2.0887 -1.7550
 2777TIP3   OH224902   6.220   1.827   1.334  0.1906  0.1052 -0.4955
 2777TIP3    H124903   6.133   1.797   1.308 -0.7282  2.1624 -0.0104
 2777TIP3    H224904   6.223   1.811   1.428  0.1367  0.4619 -0.4312
 2778TIP3   OH224905   3.205   2.556   0.424  0.6164  0.2491 -0.1578
 2778TIP3    H124906   3.135   2.578   0.363 -1.3967  0.1002  1.9837
 2778TIP3    H224907   3.248   2.480   0.384 -2.3583 -1.5739 -0.2088
 2779TIP3   OH224908   1.224   0.957   3.095  0.1004 -0.0388 -0.7232
 2779TIP3    H124909   1.191   1.047   3.100  1.0347  0.4135 -2.0930
 2779TIP3    H224910   1.318   0.967   3.083  0.5296 -1.2641  1.3009
 2780TIP3   OH224911   3.899   4.308   8.209  0.1653 -0.1987  0.0174
 2780TIP3    H124912   3.846   4.370   8.258 -1.9152  0.6392 -2.9838
 2780TIP3    H224913   3.836   4.241   8.181  1.9957 -2.7294  1.5572
 2781TIP3   OH224914   5.318   1.332   2.695 -0.0653 -0.1113  0.1566
 2781TIP3    H124915   5.390   1.393   2.711  0.6462 -1.2537  1.5246
 2781TIP3    H224916   5.239   1.384   2.708  0.5200  0.6078  0.8988
 2782TIP3   OH224917   6.002   1.502   0.933 -0.5829  0.3340  0.0117
 2782TIP3    H124918   5.970   1.502   1.023 -0.7108  3.0947  0.0430
 2782TIP3    H224919   5.928   1.532   0.881 -0.2748 -0.4864 -0.9480
 2783TIP3   OH224920   4.431   4.782   0.524  0.7650 -0.1092 -0.3694
 2783TIP3    H124921   4.430   4.690   0.551  0.1025 -0.7308 -2.3271
 2783TIP3    H224922   4.388   4.829   0.596  1.4204 -1.2649  0.8094
 2784TIP3   OH224923   3.628   4.240   8.152 -0.1037  0.1220  0.7261
 2784TIP3    H124924   3.550   4.214   8.104  0.3581  0.4926 -0.2644
 2784TIP3    H224925   3.609   4.328   8.184  0.3773  0.7637 -0.6644
 2785TIP3   OH224926   1.114   5.132   1.132 -0.1486 -0.0530 -0.4992
 2785TIP3    H124927   1.042   5.106   1.075 -0.0128 -0.5535 -0.4454
 2785TIP3    H224928   1.124   5.226   1.117 -0.5019 -0.0734 -0.8590
 2786TIP3   OH224929   0.133   3.380   2.155 -0.5817 -0.0330 -0.0487
 2786TIP3    H124930   0.067   3.415   2.215 -1.5994 -0.0856 -1.1133
 2786TIP3    H224931   0.217   3.401   2.197 -1.2379  1.0697  0.7631
 2787TIP3   OH224932   3.639   3.252   0.964  0.0839 -0.4483  0.2217
 2787TIP3    H124933   3.659   3.334   0.919 -2.0407 -0.5413 -1.0392
 2787TIP3    H224934   3.692   3.186   0.919  0.5932 -0.0017  0.1708
 2788TIP3   OH224935   3.394   3.407   0.065  0.5620  0.0697  0.2554
 2788TIP3    H124936   3.378   3.499   0.042  0.1092 -0.4456 -1.6762
 2788TIP3    H224937   3.479   3.388   0.025 -0.0520 -0.7583 -0.6861
 2789TIP3   OH224938   0.266   3.626   2.025 -0.1364  0.3643 -0.9354
 2789TIP3    H124939   0.197   3.563   2.006  1.0546 -0.8343 -1.4480
 2789TIP3    H224940   0.315   3.634   1.943 -0.8334  2.7564 -1.1908
 2790TIP3   OH224941   3.666   5.176   2.388  0.0951  0.1679 -0.0478
 2790TIP3    H124942   3.574   5.163   2.365  0.0090 -1.0441  0.8836
 2790TIP3    H224943   3.703   5.088   2.393  0.5919  0.4211  2.2884
 2791TIP3   OH224944   2.564   2.749   9.025 -0.1174 -0.1298 -0.5118
 2791TIP3    H124945   2.596   2.839   9.013  0.8464 -0.6449 -2.1610
 2791TIP3    H224946   2.521   2.729   8.942  0.2004 -1.3816 -0.3876
 2792TIP3   OH224947   1.791   3.492   1.086 -0.0572 -0.2602 -0.2613
 2792TIP3    H124948   1.840   3.427   1.035  0.0379 -0.3593 -0.0439
 2792TIP3    H224949   1.856   3.561   1.103 -0.2383  0.0410 -0.7555
 2793TIP3   OH224950   4.415   3.509   9.378 -0.0377  0.1790  0.0289
 2793TIP3    H124951   4.468   3.503   9.457  0.4772 -1.0418 -0.3919
 2793TIP3    H224952   4.427   3.425   9.334 -0.1106  0.9109 -1.4748
 2794TIP3   OH224953   5.448   4.766   6.517 -0.2544  0.0543 -0.1279
 2794TIP3    H124954   5.514   4.711   6.475  0.8236 -0.3537  1.9296
 2794TIP3    H224955   5.398   4.704   6.571 -0.9206  0.6895 -0.0119
 2795TIP3   OH224956   4.900   4.663   7.751  1.1764 -0.8854  0.1679
 2795TIP3    H124957   4.995   4.667   7.758  1.2736 -1.1880 -0.8219
 2795TIP3    H224958   4.877   4.734   7.692  0.5651  0.5483  2.0359
 2796TIP3   OH224959   2.049   1.575   7.570  0.8819 -0.0041 -0.1847
 2796TIP3    H124960   2.093   1.648   7.525 -0.2239  1.2217  0.6293
 2796TIP3    H224961   2.109   1.549   7.639  0.6369  1.2249  0.5162
 2797TIP3   OH224962   0.894   4.902   6.749  0.1455 -0.4531 -0.2372
 2797TIP3    H124963   0.970   4.893   6.692 -0.6767  2.7720 -2.1776
 2797TIP3    H224964   0.930   4.927   6.834  1.2993 -0.3464 -0.7381
 2798TIP3   OH224965   3.773   2.616   1.562  0.3027  0.8531 -0.2197
 2798TIP3    H124966   3.706   2.654   1.619 -1.1030 -0.8643 -0.6451
 2798TIP3    H224967   3.743   2.637   1.473 -0.1843 -0.6577 -0.4419
 2799TIP3   OH224968   1.999   1.197   0.824 -0.5083 -0.2682 -0.2404
 2799TIP3    H124969   1.980   1.173   0.733  0.0767 -1.3761 -0.0925
 2799TIP3    H224970   2.058   1.271   0.817 -0.3845 -0.4124 -0.7751
 2800TIP3   OH224971   5.564   3.168   2.135  0.3146  0.0117 -0.2444
 2800TIP3    H124972   5.483   3.201   2.174  0.4649  0.6704 -0.4707
 2800TIP3    H224973   5.601   3.244   2.089  0.1859 -0.7149 -1.5914
 2801TIP3   OH224974   5.296   0.606   7.714 -0.0384 -0.3658  0.5578
 2801TIP3    H124975   5.286   0.700   7.729  0.7396 -0.2619  0.4658
 2801TIP3    H224976   5.379   0.598   7.667 -0.0754 -1.0999  0.6062
 2802TIP3   OH224977   1.938   1.984   8.209 -0.0239 -0.1521  0.6385
 2802TIP3    H124978   1.980   1.899   8.220 -1.3958 -0.8298  0.7360
 2802TIP3    H224979   1.970   2.036   8.283  0.6093 -0.6661  0.7322
 2803TIP3   OH224980   3.262   2.863   8.668  0.1255 -0.2907 -0.5389
 2803TIP3    H124981   3.258   2.956   8.646  0.7464 -0.2366 -0.4552
 2803TIP3    H224982   3.182   2.826   8.631 -1.5995  0.7703  1.8740
 2804TIP3   OH224983   4.334   1.777   2.121  0.0851  0.4686  0.0663
 2804TIP3    H124984   4.350   1.703   2.063  1.1350  0.2645  0.5803
 2804TIP3    H224985   4.242   1.770   2.146 -0.2406  0.2652 -1.1456
 2805TIP3   OH224986   1.614   6.252   7.109 -0.1470 -0.2389 -0.2060
 2805TIP3    H124987   1.648   6.248   7.020 -0.1911 -0.0471 -0.2328
 2805TIP3    H224988   1.541   6.314   7.104  1.0344  1.2438  0.3397
 2806TIP3   OH224989   2.401   1.796   0.302 -0.2320  0.0787  0.1245
 2806TIP3    H124990   2.365   1.883   0.322  0.6251  0.9037 -1.6968
 2806TIP3    H224991   2.345   1.761   0.234  0.8924  0.3097 -0.9519
 2807TIP3   OH224992   3.019   2.248   1.136 -0.1578  0.3471 -0.1947
 2807TIP3    H124993   3.031   2.167   1.185 -0.7607 -0.4058 -1.2560
 2807TIP3    H224994   2.992   2.312   1.203 -0.2742 -0.4684  0.5618
 2808TIP3   OH224995   3.369   5.806   1.126 -0.0440 -0.3122 -0.0977
 2808TIP3    H124996   3.292   5.792   1.181 -0.1891 -0.5999 -0.3711
 2808TIP3    H224997   3.363   5.738   1.059  0.2341 -0.0851 -0.3551
 2809TIP3   OH224998   5.632   0.762   2.401 -0.6265 -0.3636 -0.0540
 2809TIP3    H124999   5.543   0.758   2.367 -0.7628 -1.4049  0.3789
 2809TIP3    H225000   5.640   0.850   2.437 -1.5994 -0.3669  0.2001
 2810TIP3   OH225001   4.286   3.365   8.632  0.2054  0.1735  0.4724
 2810TIP3    H125002   4.375   3.387   8.658 -0.4253  1.9209  1.2837
 2810TIP3    H225003   4.266   3.425   8.560 -0.6977  0.5931  1.0565
 2811TIP3   OH225004   1.075   4.368   7.098  0.4298  0.3230 -0.3053
 2811TIP3    H125005   1.121   4.443   7.060 -0.2997  1.1630  0.4144
 2811TIP3    H225006   1.142   4.320   7.145  0.8400  0.7389 -0.4543
 2812TIP3   OH225007   4.318   3.135   7.149  0.2731  0.0578  0.4390
 2812TIP3    H125008   4.280   3.221   7.169 -1.3347 -1.1298  2.8945
 2812TIP3    H225009   4.316   3.131   7.053 -0.1442  2.5047  0.2605
 2813TIP3   OH225010   2.788   5.391   0.948  0.2469  0.1401  0.5003
 2813TIP3    H125011   2.861   5.451   0.934  0.8991 -0.7322  0.0700
 2813TIP3    H225012   2.777   5.346   0.865 -0.6168  0.0589  0.6416
 2814TIP3   OH225013   2.521   6.155   8.579 -0.1747 -0.2512  0.2017
 2814TIP3    H125014   2.542   6.242   8.614 -0.9939  0.5879 -1.2694
 2814TIP3    H225015   2.543   6.094   8.650  1.2201  1.0729  0.9684
 2815TIP3   OH225016   5.246   4.083   0.142  1.0282 -0.2502 -0.1305
 2815TIP3    H125017   5.212   4.138   0.071  0.9190 -1.6242 -1.1868
 2815TIP3    H225018   5.173   4.074   0.202  0.6855 -0.1872 -0.5313
 2816TIP3   OH225019   0.734   5.565   1.763  0.4404 -0.2822 -0.2248
 2816TIP3    H125020   0.726   5.555   1.858 -0.9172 -0.6448 -0.3644
 2816TIP3    H225021   0.649   5.599   1.735 -1.0852 -4.6951 -1.8864
 2817TIP3   OH225022   4.901   0.457   1.236 -0.5085  0.4542  0.0881
 2817TIP3    H125023   4.975   0.484   1.181 -0.5686  2.2110  0.7904
 2817TIP3    H225024   4.938   0.392   1.295  0.1040  0.2132 -0.5373
 2818TIP3   OH225025   0.405   5.085   8.546  0.3521 -0.3906  0.5394
 2818TIP3    H125026   0.429   5.018   8.609  0.0759 -0.2606  0.7878
 2818TIP3    H225027   0.371   5.037   8.470  0.0421 -0.5277  0.7640
 2819TIP3   OH225028   2.528   4.341   1.026 -0.2403 -0.5982  0.0071
 2819TIP3    H125029   2.599   4.277   1.017 -0.5474 -0.8908 -0.4016
 2819TIP3    H225030   2.465   4.297   1.083  0.1584 -0.1126  0.8293
 2820TIP3   OH225031   5.422   0.029   6.991  0.2767 -0.5515  0.1682
 2820TIP3    H125032   5.355   0.034   7.060 -0.3028  0.6201 -0.4471
 2820TIP3    H225033   5.439   0.120   6.968  0.3087 -0.9227 -1.3852
 2821TIP3   OH225034   4.867   4.763   1.916  0.4142  0.2488 -0.1036
 2821TIP3    H125035   4.899   4.844   1.955 -0.3765 -0.2747  1.7161
 2821TIP3    H225036   4.791   4.738   1.970  0.4486 -1.5377 -0.8045
 2822TIP3   OH225037   5.315   3.403   8.201 -0.2820  0.2749 -0.5202
 2822TIP3    H125038   5.350   3.454   8.274  0.2336  0.6447 -1.0230
 2822TIP3    H225039   5.384   3.339   8.181 -0.9574 -0.7062  0.1699
 2823TIP3   OH225040   1.126   0.888   8.048  0.4315  0.0311 -0.8129
 2823TIP3    H125041   1.035   0.858   8.038 -0.4099  1.2796  1.9842
 2823TIP3    H225042   1.178   0.808   8.050 -0.1881 -0.6473 -4.8069
 2824TIP3   OH225043   3.370   2.010   8.327 -0.2344 -0.3239  0.1415
 2824TIP3    H125044   3.362   1.977   8.238  0.1383 -0.6287  0.2173
 2824TIP3    H225045   3.457   1.981   8.356 -0.3624 -0.2512  0.6149
 2825TIP3   OH225046   5.613   1.300   8.379  0.4016  0.2014 -0.5311
 2825TIP3    H125047   5.607   1.233   8.447 -2.6061  0.0559 -0.8303
 2825TIP3    H225048   5.625   1.382   8.427 -4.4402  0.5239  0.6551
 2826TIP3   OH225049   4.324   1.851   1.083 -0.3025  0.1775  0.0324
 2826TIP3    H125050   4.308   1.857   1.177 -0.6835 -1.0993  0.0598
 2826TIP3    H225051   4.255   1.794   1.050  1.2509 -1.4052 -0.6261
 2827TIP3   OH225052   4.295   2.754   1.509 -0.3668 -0.0397 -0.8702
 2827TIP3    H125053   4.213   2.718   1.542 -1.1954  1.5561 -1.0804
 2827TIP3    H225054   4.338   2.681   1.465 -1.4449 -1.0233 -0.3282
 2828TIP3   OH225055   0.714   4.989   2.095 -0.3069  0.1267  0.0260
 2828TIP3    H125056   0.619   4.994   2.088 -0.4545  0.8516  2.0133
 2828TIP3    H225057   0.730   4.921   2.160  0.5471  0.0469 -0.2497
 2829TIP3   OH225058   1.469   4.126   7.153  0.3000  0.2091 -0.0710
 2829TIP3    H125059   1.495   4.105   7.063 -0.6548  0.8835 -0.5172
 2829TIP3    H225060   1.407   4.057   7.177  0.8404 -0.1887  0.2304
 2830TIP3   OH225061   0.674   1.451   6.849 -0.2463  0.0288 -0.2832
 2830TIP3    H125062   0.716   1.383   6.796 -1.0922 -0.5462 -0.2500
 2830TIP3    H225063   0.588   1.463   6.808 -0.0267  1.2490 -0.4144
 2831TIP3   OH225064   4.436   0.535   9.365 -0.2692 -0.4690  0.4037
 2831TIP3    H125065   4.501   0.557   9.431 -1.0034  1.2631  0.6039
 2831TIP3    H225066   4.379   0.471   9.408  0.2161 -0.5919  0.8713
 2832TIP3   OH225067   6.130   1.379   0.222  0.7338 -0.2438 -0.0726
 2832TIP3    H125068   6.191   1.451   0.238 -1.4332  1.3612  1.6147
 2832TIP3    H225069   6.131   1.367   0.127  2.0862  1.1135 -0.2731
 2833TIP3   OH225070   0.964   1.385   0.445  0.0796 -0.4685 -0.1957
 2833TIP3    H125071   0.922   1.455   0.396 -0.6814 -1.3492 -0.8233
 2833TIP3    H225072   1.042   1.363   0.394  1.8417  1.6799  1.3494
 2834TIP3   OH225073   2.090   1.101   7.949 -0.0749 -0.2315 -0.0541
 2834TIP3    H125074   2.158   1.047   7.989  0.9369 -0.1155 -1.5157
 2834TIP3    H225075   2.103   1.088   7.855 -2.6598 -0.9120 -0.3907
 2835TIP3   OH225076   5.561   2.345   0.191  0.2429  0.0686 -0.1641
 2835TIP3    H125077   5.520   2.431   0.199  0.6793  0.2681 -0.0114
 2835TIP3    H225078   5.641   2.352   0.245  1.1380  0.1061 -1.4569
 2836TIP3   OH225079   0.574   1.394   8.253  0.9584 -0.0108 -0.0299
 2836TIP3    H125080   0.511   1.464   8.268  1.1269  0.1634 -0.1233
 2836TIP3    H225081   0.549   1.357   8.168  0.4549 -0.5122  0.3326
 2837TIP3   OH225082   2.037   4.974   0.235  0.5187 -0.3919  0.8494
 2837TIP3    H125083   2.100   4.924   0.287  1.0594  1.3578  1.9647
 2837TIP3    H225084   2.060   4.954   0.144  4.6835  2.3216  1.0445
 2838TIP3   OH225085   2.874   4.161   7.641  0.5623 -0.0130 -0.4956
 2838TIP3    H125086   2.833   4.076   7.627  0.7688 -0.3070  0.6086
 2838TIP3    H225087   2.814   4.207   7.700  1.4820 -0.2084  0.6234
 2839TIP3   OH225088   2.712   3.630   0.070 -0.5272  0.4170 -0.4576
 2839TIP3    H125089   2.754   3.631   0.156  0.2003  0.3803 -0.8036
 2839TIP3    H225090   2.628   3.674   0.083 -0.6597 -0.0805  0.3897
 2840TIP3   OH225091   0.349   3.311   1.916  0.3286  0.6974  0.5291
 2840TIP3    H125092   0.323   3.282   2.003 -1.6409  1.6034  0.2930
 2840TIP3    H225093   0.367   3.230   1.868 -3.1447 -0.1816  0.4526
 2841TIP3   OH225094   4.183   4.043   8.743 -0.6793 -0.1432 -0.2549
 2841TIP3    H125095   4.261   4.031   8.797  0.4558  1.6697 -1.4027
 2841TIP3    H225096   4.113   4.000   8.793  0.5745  0.2332  1.9828
 2842TIP3   OH225097   4.918   3.003   1.782 -0.2591  1.0684 -0.1875
 2842TIP3    H125098   4.887   2.931   1.728 -0.6264  2.3291 -1.7154
 2842TIP3    H225099   4.997   3.034   1.738  2.2220 -0.8394  2.5781
 2843TIP3   OH225100   4.184   4.590   8.575  0.4049 -0.3097 -0.9139
 2843TIP3    H125101   4.129   4.517   8.545  1.2131 -0.8250 -1.1801
 2843TIP3    H225102   4.128   4.667   8.568 -0.8733 -1.0599  0.5602
 2844TIP3   OH225103   4.953   5.658   1.346  0.0374  0.0835 -0.1811
 2844TIP3    H125104   4.946   5.562   1.338 -2.7368  0.3635 -3.1033
 2844TIP3    H225105   5.020   5.682   1.282  1.3922  0.1479  1.1812
 2845TIP3   OH225106   4.330   3.471   8.962  0.0877 -0.0081  0.0148
 2845TIP3    H125107   4.334   3.382   8.997  2.2685  0.1442  0.3263
 2845TIP3    H225108   4.391   3.471   8.888  0.6805  1.3664  0.4569
 2846TIP3   OH225109   1.585   4.242   2.784 -0.2851  0.8934 -0.0930
 2846TIP3    H125110   1.617   4.331   2.769  1.0024  0.8921  2.1532
 2846TIP3    H225111   1.664   4.188   2.781 -0.9323 -0.0714 -0.4811
 2847TIP3   OH225112   2.971   1.754   0.779 -0.1513 -0.3885  0.0504
 2847TIP3    H125113   2.938   1.748   0.690 -0.6215 -1.2276  0.2749
 2847TIP3    H225114   2.915   1.818   0.822  0.4502  0.4720 -0.4062
 2848TIP3   OH225115   5.829   4.419   7.191 -0.2840  0.2948 -0.4078
 2848TIP3    H125116   5.838   4.361   7.266 -0.6283  0.3568 -0.3173
 2848TIP3    H225117   5.894   4.488   7.205 -2.2536  1.9290  1.3208
 2849TIP3   OH225118   1.903   3.567   0.049 -0.1838  0.1522  0.3808
 2849TIP3    H125119   1.986   3.522   0.067 -0.2269 -0.3321 -0.5572
 2849TIP3    H225120   1.927   3.640  -0.008 -0.3296  0.3588  0.5820
 2850TIP3   OH225121   0.076   1.992   8.373  0.0929 -0.0459 -0.3145
 2850TIP3    H125122  -0.005   1.962   8.414 -0.0079  0.3899 -0.1834
 2850TIP3    H225123   0.078   2.086   8.391 -0.1234  0.2169 -1.5924
 2851TIP3   OH225124   1.890   1.195   6.164  0.0447  0.5408 -0.4245
 2851TIP3    H125125   1.966   1.155   6.122 -0.1054  1.6114 -1.7685
 2851TIP3    H225126   1.927   1.253   6.231  0.2620 -1.9284  1.7451
 2852TIP3   OH225127   0.900   0.543   8.521 -0.3269  0.0737  0.0046
 2852TIP3    H125128   0.924   0.542   8.614  1.6678 -4.3367 -0.2889
 2852TIP3    H225129   0.812   0.505   8.519 -0.5476  0.5722  0.0860
 2853TIP3   OH225130   4.289   4.930   9.421 -0.1291  0.0613 -0.5358
 2853TIP3    H125131   4.310   4.958   9.332 -0.5893  0.8662 -0.3979
 2853TIP3    H225132   4.206   4.883   9.413  0.5365 -1.1456 -0.7335
 2854TIP3   OH225133   0.934   4.446   7.414 -0.3879 -0.7278 -0.9716
 2854TIP3    H125134   0.883   4.365   7.424  1.4603 -1.7226  1.3889
 2854TIP3    H225135   0.880   4.513   7.454  0.0238 -1.7654  1.5043
 2855TIP3   OH225136   2.823   0.729   7.918  0.2026  0.1466 -0.4430
 2855TIP3    H125137   2.788   0.786   7.849  0.3633 -0.5699 -1.1282
 2855TIP3    H225138   2.748   0.676   7.946 -0.3020  1.6333  1.1948
 2856TIP3   OH225139   1.923   4.674   7.866  0.6102  0.6448  0.2273
 2856TIP3    H125140   1.932   4.580   7.846  2.1277  0.4066  1.7173
 2856TIP3    H225141   1.927   4.717   7.781  3.0895 -0.4936 -0.3274
 2857TIP3   OH225142   1.635   1.160   6.026 -0.1833 -0.0578  0.0507
 2857TIP3    H125143   1.569   1.141   6.093  0.4003 -1.0274  0.3544
 2857TIP3    H225144   1.716   1.174   6.075  0.0554  0.1299 -0.3922
 2858TIP3   OH225145   6.273   4.689   6.878 -0.0625  0.2115 -0.7327
 2858TIP3    H125146   6.286   4.782   6.900  0.0646 -0.0400  0.3268
 2858TIP3    H225147   6.271   4.687   6.783  1.2268  1.1510 -0.8122
 2859TIP3   OH225148   4.124   3.389   0.609  0.6849 -0.7305 -0.3504
 2859TIP3    H125149   4.212   3.426   0.602  0.3376  0.5805  1.4878
 2859TIP3    H225150   4.130   3.328   0.682 -0.3355  0.8123  1.0928
 2860TIP3   OH225151   6.451   4.262   8.388  0.3301 -0.2031 -0.3993
 2860TIP3    H125152   6.452   4.166   8.385 -1.6720 -0.2506 -1.2895
 2860TIP3    H225153   6.375   4.284   8.441  0.1603  0.8873 -1.0649
 2861TIP3   OH225154   0.192   5.228   7.825  0.0394 -0.0751  0.1123
 2861TIP3    H125155   0.205   5.308   7.876  1.5038 -0.2644  0.0667
 2861TIP3    H225156   0.278   5.207   7.790 -0.0660 -2.2938  1.0221
 2862TIP3   OH225157   0.294   1.665   7.088  0.1227 -0.2012 -0.1273
 2862TIP3    H125158   0.319   1.750   7.051 -0.6668  0.4384  0.7466
 2862TIP3    H225159   0.252   1.619   7.016  1.9115 -0.4690 -1.0307
 2863TIP3   OH225160   3.547   3.004   7.471  0.5241  0.5901 -0.7987
 2863TIP3    H125161   3.637   3.023   7.496  0.5395 -1.5970  1.1441
 2863TIP3    H225162   3.494   3.042   7.542 -0.1247  1.6994 -1.8310
 2864TIP3   OH225163   4.010   1.436   7.083 -0.4469 -0.3078 -0.4183
 2864TIP3    H125164   4.092   1.481   7.105 -1.6153  1.7698 -0.0852
 2864TIP3    H225165   3.971   1.490   7.014 -1.9090 -0.8205 -0.0167
 2865TIP3   OH225166   0.053   4.816   7.092  0.5002  0.3451  0.4012
 2865TIP3    H125167   0.133   4.866   7.107  0.2938  1.1537 -1.0457
 2865TIP3    H225168  -0.012   4.881   7.066  0.1847 -0.6161 -1.3627
 2866TIP3   OH225169   0.349   3.400   9.138  0.3503 -0.1012 -0.5039
 2866TIP3    H125170   0.291   3.469   9.105  0.7455  0.0965 -0.8087
 2866TIP3    H225171   0.355   3.338   9.065  1.2531  0.3532 -0.8338
 2867TIP3   OH225172   1.933   2.523   6.725  0.7623  1.0700  0.4381
 2867TIP3    H125173   1.930   2.567   6.640 -0.0534 -0.1141 -0.1705
 2867TIP3    H225174   1.986   2.445   6.710 -0.8267 -0.0685  0.5422
 2868TIP3   OH225175   5.068   6.354   7.939 -0.5480  0.0768 -0.1538
 2868TIP3    H125176   5.139   6.375   7.879 -1.7822  2.6204 -0.8401
 2868TIP3    H225177   5.110   6.350   8.025  0.7087 -0.3936 -0.7641
 2869TIP3   OH225178   1.897   5.943   8.394  0.1043  0.1993  0.1229
 2869TIP3    H125179   1.988   5.922   8.373 -0.1589 -0.2974 -0.5709
 2869TIP3    H225180   1.852   5.942   8.309 -0.5145  0.6007  0.4378
 2870TIP3   OH225181   5.718   5.468   0.159 -0.0863  0.1480  0.0428
 2870TIP3    H125182   5.776   5.412   0.209 -0.9411  1.2476  2.3870
 2870TIP3    H225183   5.651   5.409   0.123 -0.2805 -0.5070  1.4324
 2871TIP3   OH225184   6.434   5.301   0.219  0.6719 -0.1092 -0.0521
 2871TIP3    H125185   6.355   5.274   0.171  0.1629 -1.7099  1.5812
 2871TIP3    H225186   6.402   5.363   0.285  0.8271 -0.4844  0.3795
 2872TIP3   OH225187   6.193   6.424   7.294 -0.5928  0.3647  0.4497
 2872TIP3    H125188   6.127   6.457   7.355 -0.1407 -1.7018  2.1488
 2872TIP3    H225189   6.143   6.381   7.225 -1.0701  1.2655  0.2236
 2873TIP3   OH225190   0.910   2.029   2.626  0.1951  0.0788 -0.0742
 2873TIP3    H125191   0.894   1.949   2.675 -0.9051 -0.5380 -1.3600
 2873TIP3    H225192   1.000   2.054   2.647  0.5245 -1.4551  0.4078
 2874TIP3   OH225193   6.450   1.961   0.886  0.1590  0.1775  0.3463
 2874TIP3    H125194   6.479   1.910   0.810 -0.2159  0.4711  0.0054
 2874TIP3    H225195   6.404   1.898   0.941 -1.2478  0.3532 -0.5806
 2875TIP3   OH225196   5.380   3.034   2.323  0.0397  0.1890  0.1467
 2875TIP3    H125197   5.406   3.075   2.241 -1.1492  1.4108  0.3464
 2875TIP3    H225198   5.335   3.104   2.372 -0.6741 -0.9379  1.1654
 2876TIP3   OH225199   1.762   1.266   7.029 -0.7918  0.1517  0.0554
 2876TIP3    H125200   1.854   1.263   7.003 -1.1588  0.8788 -1.4288
 2876TIP3    H225201   1.763   1.247   7.123  0.9541  1.1079  0.2762
 2877TIP3   OH225202   3.521   1.104   0.846 -0.6105 -0.0006 -0.5224
 2877TIP3    H125203   3.472   1.077   0.923 -1.0764  1.3918 -0.3137
 2877TIP3    H225204   3.454   1.127   0.782 -0.2702  2.0216 -0.2022
 2878TIP3   OH225205   0.760   1.859   1.701  0.2265  0.0628 -0.0987
 2878TIP3    H125206   0.799   1.784   1.745 -0.5399 -0.7579 -0.7737
 2878TIP3    H225207   0.801   1.860   1.614  1.4276  1.4218  0.4441
 2879TIP3   OH225208   2.926   5.196   1.440 -0.5745  0.4295 -0.0220
 2879TIP3    H125209   2.910   5.246   1.360  0.7358 -0.6987 -1.0362
 2879TIP3    H225210   2.946   5.262   1.507 -1.1870  1.3606 -0.7429
 2880TIP3   OH225211   1.020   5.516   0.721  0.3046 -0.0794  0.3012
 2880TIP3    H125212   1.017   5.520   0.626 -1.1358  1.8002  0.3574
 2880TIP3    H225213   1.045   5.605   0.748 -1.6615  0.1262  1.6768
 2881TIP3   OH225214   6.133   4.086   0.807  0.1956  0.2610  0.3450
 2881TIP3    H125215   6.121   4.070   0.713  0.6559  1.2217  0.1090
 2881TIP3    H225216   6.068   4.031   0.849 -0.8339  0.7250 -0.5950
 2882TIP3   OH225217   4.760   0.722   0.372 -0.6659 -0.3306  0.3009
 2882TIP3    H125218   4.715   0.707   0.455  0.2733  1.1414  1.1094
 2882TIP3    H225219   4.837   0.773   0.395 -0.9361  1.0322 -1.5895
 2883TIP3   OH225220   3.216   1.907   1.667  0.2292 -0.0477 -0.0053
 2883TIP3    H125221   3.282   1.970   1.696  1.0035 -1.3374  1.1576
 2883TIP3    H225222   3.140   1.960   1.643  1.5978  1.4576 -1.1691
 2884TIP3   OH225223   0.319   5.302   1.183 -0.1570  0.3707 -0.0170
 2884TIP3    H125224   0.252   5.233   1.179 -0.0198  0.2827 -1.1236
 2884TIP3    H225225   0.275   5.376   1.224 -0.9599  0.3378 -0.8081
 2885TIP3   OH225226   6.061   6.090   2.138 -0.6014 -0.3888 -0.0422
 2885TIP3    H125227   6.062   6.165   2.079  0.0648 -0.2903  0.0915
 2885TIP3    H225228   6.019   6.122   2.218 -3.2032 -1.0012 -1.0639
 2886TIP3   OH225229   2.490   3.628   7.246  0.4034 -0.0735 -0.0536
 2886TIP3    H125230   2.536   3.678   7.179  1.4790 -1.1501 -0.1546
 2886TIP3    H225231   2.409   3.677   7.261 -0.2769 -0.2170 -2.7142
 2887TIP3   OH225232   2.763   5.329   0.683 -0.5709 -0.0168  0.6052
 2887TIP3    H125233   2.857   5.312   0.683 -0.7589 -1.2401 -0.4243
 2887TIP3    H225234   2.742   5.345   0.591 -1.8787 -3.1527  0.2430
 2888TIP3   OH225235   0.104   1.532   0.671  0.4927 -0.5158 -0.4707
 2888TIP3    H125236   0.032   1.573   0.721  1.1313  2.1030 -1.5475
 2888TIP3    H225237   0.182   1.550   0.723  0.6860 -1.4425 -0.4109
 2889TIP3   OH225238   4.685   5.252   7.843 -0.7979 -0.3470  0.6671
 2889TIP3    H125239   4.760   5.273   7.787 -1.6946  0.2166 -0.3648
 2889TIP3    H225240   4.613   5.235   7.781 -1.7338 -0.0159  1.6351
 2890TIP3   OH225241   0.085   4.913   2.321  0.8728  0.0032  0.2522
 2890TIP3    H125242   0.158   4.973   2.331  0.9403 -0.1488  0.7298
 2890TIP3    H225243   0.050   4.903   2.410 -0.2167  0.6777 -0.0837
 2891TIP3   OH225244   3.522   4.089   2.915  0.1375  0.0402  0.8950
 2891TIP3    H125245   3.534   4.001   2.879  2.5331  0.3181  0.8561
 2891TIP3    H225246   3.571   4.146   2.856 -1.2071  1.3908  1.0447
 2892TIP3   OH225247   4.958   5.023   2.024 -0.4179  0.0048  0.3372
 2892TIP3    H125248   5.013   4.999   2.098  1.0448  2.7630  0.2519
 2892TIP3    H225249   4.972   5.117   2.013 -2.4480  0.1306 -1.9500
 2893TIP3   OH225250   5.125   0.668   2.507 -0.4081 -0.6262 -0.0444
 2893TIP3    H125251   5.037   0.639   2.530 -0.8505 -1.6506 -2.6798
 2893TIP3    H225252   5.171   0.588   2.482  1.4210 -0.1388  1.5089
 2894TIP3   OH225253   5.774   2.190   7.859 -0.3552  1.1693 -0.4352
 2894TIP3    H125254   5.813   2.130   7.795 -2.1314 -0.7764  0.1742
 2894TIP3    H225255   5.700   2.229   7.813 -0.1966  1.6423 -0.2953
 2895TIP3   OH225256   2.419   4.332   8.286  0.2372  0.6373  0.0741
 2895TIP3    H125257   2.355   4.322   8.357  0.6337  0.9326  0.4814
 2895TIP3    H225258   2.449   4.423   8.294  2.3779 -0.1341  1.3419
 2896TIP3   OH225259   4.586   2.995   7.757  0.2672 -0.3568  0.1065
 2896TIP3    H125260   4.645   3.068   7.775  0.7829 -0.9108  0.7349
 2896TIP3    H225261   4.607   2.930   7.824 -2.0275 -0.0186  1.2539
 2897TIP3   OH225262   4.856   1.295   7.900  0.1493 -0.0043  0.5644
 2897TIP3    H125263   4.901   1.246   7.968  2.0729  0.1936 -0.4909
 2897TIP3    H225264   4.829   1.229   7.836  0.7778  0.0539  0.2234
 2898TIP3   OH225265   3.454   0.427   0.327 -0.4037 -0.1760 -0.3414
 2898TIP3    H125266   3.420   0.512   0.299 -0.7070 -0.7726 -1.9056
 2898TIP3    H225267   3.419   0.365   0.263 -0.0291 -1.4551  0.6581
 2899TIP3   OH225268   4.718   0.837   7.574  0.1843  0.4397  0.0988
 2899TIP3    H125269   4.666   0.818   7.496  2.0938 -2.3615 -0.6526
 2899TIP3    H225270   4.656   0.828   7.646 -1.0890  0.5444 -0.9411
 2900TIP3   OH225271   2.987   0.916   1.389  0.7310  0.6241  0.0224
 2900TIP3    H125272   3.024   0.828   1.389  1.4846  0.9358  0.0674
 2900TIP3    H225273   3.062   0.974   1.400  0.3171  1.3065 -0.6229
 2901TIP3   OH225274   4.285   5.247   8.834 -0.3858 -0.3436 -0.2910
 2901TIP3    H125275   4.241   5.301   8.768  0.8753  0.1537 -0.7516
 2901TIP3    H225276   4.301   5.306   8.907 -1.5526 -0.8327  0.3896
 2902TIP3   OH225277   1.464   1.447   1.776 -0.0180  0.6644 -0.2410
 2902TIP3    H125278   1.389   1.445   1.836 -0.4724  0.4214 -0.8113
 2902TIP3    H225279   1.539   1.427   1.832 -0.6964 -1.9976 -0.1066
 2903TIP3   OH225280   2.185   2.688   2.269 -0.0634  0.1327 -0.6353
 2903TIP3    H125281   2.256   2.625   2.284  0.1519  0.3654 -0.6875
 2903TIP3    H225282   2.175   2.733   2.353  0.8061  1.0877 -1.0282
 2904TIP3   OH225283   4.510   0.804   1.363  0.0928 -0.4621 -0.1422
 2904TIP3    H125284   4.562   0.724   1.370  0.0838 -0.4889 -0.3950
 2904TIP3    H225285   4.424   0.778   1.396 -0.5008 -1.1058 -2.0650
 2905TIP3   OH225286   5.042   5.829   2.360 -0.2261  0.4112  0.3102
 2905TIP3    H125287   5.018   5.911   2.318 -1.1076  1.1297  2.1180
 2905TIP3    H225288   4.958   5.788   2.382  0.2012 -0.9696 -0.5006
 2906TIP3   OH225289   2.800   5.811   9.171  0.4182  0.0724 -0.2565
 2906TIP3    H125290   2.861   5.767   9.231  0.6353  1.1255  0.3266
 2906TIP3    H225291   2.845   5.813   9.087  2.0169  2.3320  0.5318
 2907TIP3   OH225292   6.279   0.852   0.940 -0.6772  0.0993  0.1459
 2907TIP3    H125293   6.273   0.806   1.024  1.0297 -0.5969 -0.0758
 2907TIP3    H225294   6.236   0.794   0.878 -1.1179  0.1890  0.3571
 2908TIP3   OH225295   1.887   5.134   9.072 -0.6560 -0.6123  0.0782
 2908TIP3    H125296   1.853   5.120   8.984  2.5398 -3.8498 -0.8813
 2908TIP3    H225297   1.935   5.217   9.066 -2.3392  0.3880 -0.4524
 2909TIP3   OH225298   4.004   0.825   7.751  0.1121  0.3729 -0.0794
 2909TIP3    H125299   4.091   0.864   7.753  0.3758  0.1714 -2.9103
 2909TIP3    H225300   3.987   0.798   7.841  2.7229  0.9018  0.6478
 2910TIP3   OH225301   1.545   3.123   7.453 -0.6607  1.1996  0.2180
 2910TIP3    H125302   1.482   3.184   7.416  0.7457  2.3573 -0.3661
 2910TIP3    H225303   1.556   3.152   7.543 -0.2328  1.6282  0.0326
 2911TIP3   OH225304   5.878   0.985   9.065  0.6068  0.3585 -0.2271
 2911TIP3    H125305   5.833   1.069   9.073  0.6243  0.3041  0.4832
 2911TIP3    H225306   5.930   0.993   8.985  0.6756  1.0524 -0.1188
 2912TIP3   OH225307   5.311   0.506   0.558 -0.0594 -0.1885 -0.8508
 2912TIP3    H125308   5.363   0.481   0.481 -1.3847 -0.0900 -1.8165
 2912TIP3    H225309   5.261   0.582   0.529  0.1146  0.4383  0.4341
 2913TIP3   OH225310   4.243   4.166   2.276 -0.0327  0.3126  0.1330
 2913TIP3    H125311   4.224   4.076   2.303 -0.4423  0.5181  0.5578
 2913TIP3    H225312   4.326   4.187   2.317 -0.1678  0.2835  0.4259
 2914TIP3   OH225313   1.849   5.428   0.376  0.2019  0.5382  0.1280
 2914TIP3    H125314   1.918   5.459   0.434  0.1829 -0.3759  0.6574
 2914TIP3    H225315   1.885   5.348   0.337 -0.4379  0.2091  0.1906
 2915TIP3   OH225316   1.280   2.210   2.062  0.1130  0.1604  0.5078
 2915TIP3    H125317   1.283   2.245   1.973 -1.2398 -1.1884 -0.1039
 2915TIP3    H225318   1.372   2.200   2.087  0.5632 -1.3122 -1.5175
 2916TIP3   OH225319   0.760   5.238   9.073  0.2021 -0.3349 -0.2628
 2916TIP3    H125320   0.846   5.196   9.072  0.9442  1.0574 -2.6568
 2916TIP3    H225321   0.772   5.316   9.128  1.0407  0.8049 -1.9763
 2917TIP3   OH225322   1.466   1.324   7.855  0.2369 -0.1744  0.5467
 2917TIP3    H125323   1.374   1.348   7.840 -0.9494 -3.8186  0.9211
 2917TIP3    H225324   1.515   1.377   7.792 -2.2055  1.1053 -0.4250
 2918TIP3   OH225325   1.771   2.749   0.692 -0.3572 -0.0609 -0.0469
 2918TIP3    H125326   1.693   2.695   0.678 -0.1015 -0.6930  0.8652
 2918TIP3    H225327   1.788   2.742   0.786  0.6228  0.3178 -0.1850
 2919TIP3   OH225328   0.276   1.239   0.148  0.2376  0.2039 -0.2784
 2919TIP3    H125329   0.299   1.245   0.241 -2.8064  0.3748  0.5634
 2919TIP3    H225330   0.289   1.328   0.115 -0.9245  0.7550  0.6437
 2920TIP3   OH225331   2.639   5.872   1.260  0.0933 -0.0230  0.6492
 2920TIP3    H125332   2.691   5.948   1.234  1.4862 -0.8978  0.7570
 2920TIP3    H225333   2.568   5.868   1.195  0.0982  1.2444  0.5420
 2921TIP3   OH225334   5.650   4.927   0.479  0.2515  0.1345  0.4517
 2921TIP3    H125335   5.597   4.922   0.400  0.8487  0.4941  0.0130
 2921TIP3    H225336   5.706   4.849   0.475 -1.2099 -1.0349  1.6561
 2922TIP3   OH225337   6.090   5.138   1.358  0.1034  0.1187 -0.2062
 2922TIP3    H125338   6.173   5.103   1.326  0.1229 -1.9011  1.8043
 2922TIP3    H225339   6.025   5.072   1.334 -0.2530 -0.2582  1.6652
 2923TIP3   OH225340   3.349   0.769   7.640 -0.5830  0.2926 -0.2936
 2923TIP3    H125341   3.391   0.684   7.634 -0.9322  0.1084 -0.1514
 2923TIP3    H225342   3.342   0.799   7.550 -1.0613 -0.1254 -0.3975
 2924TIP3   OH225343   2.553   1.929   7.810  0.2735  0.6384 -0.1481
 2924TIP3    H125344   2.641   1.946   7.777  0.0234  2.5927  0.0662
 2924TIP3    H225345   2.495   1.978   7.750 -0.7939 -1.4364 -0.9116
 2925TIP3   OH225346   0.019   1.026   1.421 -0.1776  0.3356  0.1849
 2925TIP3    H125347  -0.005   0.986   1.505 -1.4474 -1.7513 -1.0748
 2925TIP3    H225348   0.100   0.981   1.396 -1.2770 -1.1239 -0.9430
 2926TIP3   OH225349   3.731   1.905   9.172  0.0901  0.4169  0.0095
 2926TIP3    H125350   3.731   2.000   9.156 -0.0083  0.2940 -0.7507
 2926TIP3    H225351   3.771   1.868   9.094  2.1355 -0.0470  1.2061
 2927TIP3   OH225352   3.644   2.774   0.952 -0.3432  0.1137 -0.5967
 2927TIP3    H125353   3.651   2.827   1.031 -0.8221 -0.7953  0.0672
 2927TIP3    H225354   3.549   2.764   0.939 -0.2673 -1.2791 -0.2225
 2928TIP3   OH225355   3.382   3.328   1.949  0.1214  0.2001 -0.2094
 2928TIP3    H125356   3.326   3.308   2.024  0.5581  0.2101  0.1265
 2928TIP3    H225357   3.471   3.310   1.981  0.4246  1.4257 -0.3196
 2929TIP3   OH225358   1.108   5.169   9.137 -0.1753  0.0956 -0.4005
 2929TIP3    H125359   1.148   5.255   9.153 -1.1337  0.2753  1.2539
 2929TIP3    H225360   1.182   5.109   9.130  0.4699  0.6395  1.2470
 2930TIP3   OH225361   2.816   3.296   7.581 -0.0333  0.2444  0.0240
 2930TIP3    H125362   2.744   3.356   7.600 -0.0349  0.0480  0.6321
 2930TIP3    H225363   2.843   3.320   7.492 -0.7878  0.3738 -0.1792
 2931TIP3   OH225364   2.393   3.896   8.930 -0.1407 -0.6885  0.6264
 2931TIP3    H125365   2.436   3.975   8.963  2.1371 -1.4634 -0.2973
 2931TIP3    H225366   2.300   3.909   8.950  0.5404  0.8452  3.2074
 2932TIP3   OH225367   0.409   5.975   9.150  0.3783 -0.4082  0.1118
 2932TIP3    H125368   0.365   5.916   9.089  1.8075 -0.9230 -0.4634
 2932TIP3    H225369   0.391   5.937   9.236 -0.4305 -0.5074 -0.0961
 2933TIP3   OH225370   2.529   0.429   1.808 -0.1423 -0.4723 -0.4501
 2933TIP3    H125371   2.510   0.408   1.899 -0.0106 -2.1583 -0.7766
 2933TIP3    H225372   2.556   0.346   1.769 -0.3464  0.1802 -2.0764
 2934TIP3   OH225373   3.258   2.397   1.280 -0.1577 -0.3495 -0.2486
 2934TIP3    H125374   3.237   2.316   1.326 -0.5739 -0.1517 -0.0809
 2934TIP3    H225375   3.303   2.451   1.344 -0.0252 -0.3839 -0.3121
 2935TIP3   OH225376   0.611   0.609   6.430 -0.5441 -0.2747 -0.5233
 2935TIP3    H125377   0.654   0.524   6.434  2.3029  1.0681  0.6693
 2935TIP3    H225378   0.523   0.594   6.463 -0.0747 -2.7177 -0.2286
 2936TIP3   OH225379   3.903   2.109   7.466 -0.3224  0.5563  0.0306
 2936TIP3    H125380   3.967   2.066   7.410 -0.4245  2.0136 -1.2675
 2936TIP3    H225381   3.825   2.054   7.460  0.5159 -0.7890  0.9835
 2937TIP3   OH225382   1.970   4.943   1.086 -0.2198 -0.0724  0.8795
 2937TIP3    H125383   1.995   4.884   1.014 -0.2501 -0.7659  1.4346
 2937TIP3    H225384   1.890   4.906   1.122  0.1462 -0.0840  1.6896
 2938TIP3   OH225385   0.047   2.536   0.451 -0.2570 -0.1674  0.4970
 2938TIP3    H125386   0.007   2.464   0.500 -1.5325 -1.1929 -1.9149
 2938TIP3    H225387   0.050   2.506   0.361  1.0730  2.0376 -0.2838
 2939TIP3   OH225388   6.282   4.517   2.565 -0.0129 -0.2343 -0.4213
 2939TIP3    H125389   6.305   4.488   2.653 -0.1956  0.5286 -0.1116
 2939TIP3    H225390   6.350   4.480   2.509 -0.0729 -0.9843 -0.0044
 2940TIP3   OH225391   2.303   3.263   0.628 -0.1528  0.4311 -0.9727
 2940TIP3    H125392   2.356   3.201   0.578 -0.0074  1.6911 -2.4596
 2940TIP3    H225393   2.260   3.209   0.695  1.4149 -0.9490 -0.9985
 2941TIP3   OH225394   1.235   3.460   6.504 -0.7065  0.6079  0.3661
 2941TIP3    H125395   1.240   3.540   6.452  0.1831 -2.0388 -4.1380
 2941TIP3    H225396   1.324   3.447   6.537 -0.2772  0.4227 -0.8135
 2942TIP3   OH225397   1.250   1.902   6.170 -0.8465 -0.4822 -0.4214
 2942TIP3    H125398   1.163   1.935   6.149 -1.0633 -0.9149 -0.2107
 2942TIP3    H225399   1.306   1.979   6.167 -0.7664 -0.5472 -3.0281
 2943TIP3   OH225400   0.810   6.021   7.655  0.4070 -0.7489  0.6152
 2943TIP3    H125401   0.793   5.927   7.653 -2.0492 -0.3828  1.0534
 2943TIP3    H225402   0.735   6.060   7.611  1.6195  1.0056  0.0014
 2944TIP3   OH225403   1.395   1.029   0.764 -0.3187 -0.0178  0.3017
 2944TIP3    H125404   1.439   1.087   0.703  0.4398  0.1975  1.0374
 2944TIP3    H225405   1.367   0.954   0.711 -0.0339  0.3489 -0.3729
 2945TIP3   OH225406   2.577   2.243   1.329 -0.4794 -0.3669  0.2172
 2945TIP3    H125407   2.648   2.180   1.322 -2.6014 -2.9516  0.4934
 2945TIP3    H225408   2.554   2.262   1.238 -0.6998 -1.0657  0.1215
 2946TIP3   OH225409   1.440   1.938   7.290  0.0659  0.3565 -0.2757
 2946TIP3    H125410   1.469   1.879   7.360  0.7323 -0.0819 -0.9117
 2946TIP3    H225411   1.345   1.930   7.289  0.2103 -1.7563 -1.2540
 2947TIP3   OH225412   2.128   6.222   6.459  0.6630 -0.2431 -0.4095
 2947TIP3    H125413   2.214   6.264   6.453  0.9180 -0.6229  0.4901
 2947TIP3    H225414   2.105   6.203   6.368  1.5329 -0.1530 -0.6582
 2948TIP3   OH225415   1.029   2.316   8.679  0.8117 -0.5344 -0.2744
 2948TIP3    H125416   0.948   2.275   8.650 -0.4884  2.4537 -1.3095
 2948TIP3    H225417   1.096   2.285   8.619  0.0700 -1.6596 -0.5367
 2949TIP3   OH225418   0.137   1.522   9.058  0.1080 -0.4314  0.0680
 2949TIP3    H125419   0.093   1.438   9.064  1.6777 -1.2143  2.0095
 2949TIP3    H225420   0.074   1.585   9.093 -1.5181 -0.5038 -2.4513
 2950TIP3   OH225421   3.598   1.981   1.914 -0.4444  0.3972  0.3755
 2950TIP3    H125422   3.609   2.026   1.830 -0.1557  1.6584  1.0798
 2950TIP3    H225423   3.677   2.001   1.964 -0.2851 -0.9252  0.7166
 2951TIP3   OH225424   2.445   3.057   0.492 -0.7144 -0.2193  0.2253
 2951TIP3    H125425   2.435   2.962   0.489  0.6211 -0.3607 -2.2873
 2951TIP3    H225426   2.527   3.072   0.539 -1.3997 -0.1902  1.4812
 2952TIP3   OH225427   2.282   5.997   2.472  0.1409  0.1871  0.1106
 2952TIP3    H125428   2.350   5.939   2.508 -2.2085 -1.4071  2.3873
 2952TIP3    H225429   2.239   5.944   2.405 -1.2627 -0.3778  1.3887
 2953TIP3   OH225430   0.802   6.083   1.956 -0.7667  0.2098 -0.7155
 2953TIP3    H125431   0.852   6.004   1.979  0.6829  0.9879 -1.0484
 2953TIP3    H225432   0.758   6.108   2.037  0.3621  0.1563 -0.0619
 2954TIP3   OH225433   0.149   0.156   0.470 -0.2375  0.3305 -0.0916
 2954TIP3    H125434   0.097   0.091   0.517 -3.2575  2.1093 -0.7244
 2954TIP3    H225435   0.192   0.207   0.539  0.3788 -0.8888  0.4580
 2955TIP3   OH225436   1.318   2.729   2.202 -0.2800 -0.4069  0.2048
 2955TIP3    H125437   1.301   2.800   2.141  2.2339  0.8431  0.8270
 2955TIP3    H225438   1.249   2.737   2.269  0.2419  1.7937  0.5268
 2956TIP3   OH225439   2.324   4.497   9.354 -0.4101 -0.6337  0.9262
 2956TIP3    H125440   2.352   4.427   9.294 -0.3484  0.1731 -0.0211
 2956TIP3    H225441   2.348   4.465   9.441  0.5604 -1.3389  0.4257
 2957TIP3   OH225442   1.624   0.878   6.493 -0.2027 -0.1108 -0.3578
 2957TIP3    H125443   1.591   0.860   6.405 -3.2184  1.2404  0.3589
 2957TIP3    H225444   1.599   0.801   6.544  0.0024 -0.1516 -0.3178
 2958TIP3   OH225445   1.494   4.690   0.107 -0.1538  0.1001 -0.0332
 2958TIP3    H125446   1.418   4.668   0.161 -0.7650  0.6148 -0.6636
 2958TIP3    H225447   1.495   4.786   0.106  0.3126  0.0917 -0.2965
 2959TIP3   OH225448   5.570   4.736   0.246  0.0832  0.4450 -0.4962
 2959TIP3    H125449   5.479   4.728   0.275 -0.1036  0.5701 -1.0338
 2959TIP3    H225450   5.569   4.708   0.155  0.6269  0.2377 -0.4450
 2960TIP3   OH225451   3.973   0.534   9.061  0.4103 -0.4949  0.5362
 2960TIP3    H125452   3.986   0.570   8.974 -0.1957  2.7283  1.6525
 2960TIP3    H225453   4.052   0.483   9.078  1.9144  1.2851 -0.7744
 2961TIP3   OH225454   0.796   4.659   8.359 -0.1937  0.5373 -0.1738
 2961TIP3    H125455   0.772   4.704   8.277 -1.9820 -1.0882 -0.6392
 2961TIP3    H225456   0.887   4.683   8.374  0.0421  1.3015 -2.3851
 2962TIP3   OH225457   5.536   3.072   1.180  0.3422  0.1815 -0.3695
 2962TIP3    H125458   5.537   3.162   1.210 -0.2477  0.4828 -1.2169
 2962TIP3    H225459   5.591   3.025   1.243  1.5182  1.3138 -0.5130
 2963TIP3   OH225460   5.696   3.761   8.445  0.2272  0.1361  0.6399
 2963TIP3    H125461   5.717   3.668   8.451  0.5218  0.2753  1.9570
 2963TIP3    H225462   5.678   3.788   8.535 -3.5353  0.5298 -0.0657
 2964TIP3   OH225463   3.056   1.800   1.923 -0.4105 -0.1133 -0.1310
 2964TIP3    H125464   3.075   1.711   1.895 -3.0944 -0.3561 -1.5146
 2964TIP3    H225465   3.116   1.855   1.871  0.3885 -1.0275 -0.1947
 2965TIP3   OH225466   3.526   5.567   1.999  0.1346  0.1525 -0.7661
 2965TIP3    H125467   3.523   5.472   2.008 -1.5658 -0.0497 -2.6769
 2965TIP3    H225468   3.618   5.590   2.010  0.4331 -1.5554  0.8052
 2966TIP3   OH225469   3.020   1.509   6.224 -0.3558 -0.1208  0.1915
 2966TIP3    H125470   3.102   1.499   6.272 -0.1778  2.6034  0.5912
 2966TIP3    H225471   3.029   1.591   6.176 -1.5482 -1.4369 -2.5585
 2967TIP3   OH225472   4.427   3.858   0.944  0.0056 -0.4450 -0.0895
 2967TIP3    H125473   4.423   3.827   1.034 -0.7019 -2.9239 -0.8868
 2967TIP3    H225474   4.488   3.932   0.947 -0.7379  0.1757  2.5442
 2968TIP3   OH225475   4.101   3.062   1.758  0.6002 -0.6208 -0.5296
 2968TIP3    H125476   4.006   3.058   1.769  0.7443  0.8729  2.5490
 2968TIP3    H225477   4.134   2.994   1.816  1.4139  0.1201 -0.0965
 2969TIP3   OH225478   1.233   2.962   9.083 -0.2984 -0.0002 -0.5984
 2969TIP3    H125479   1.323   2.971   9.115  0.1036  1.6993 -1.9987
 2969TIP3    H225480   1.182   3.021   9.139 -0.1106  0.7573 -1.2037
 2970TIP3   OH225481   1.768   2.104   8.029  0.3032 -0.3387 -0.3653
 2970TIP3    H125482   1.700   2.039   8.015  1.1905 -1.6550  1.1239
 2970TIP3    H225483   1.821   2.069   8.100 -0.6093  3.1245  2.3512
 2971TIP3   OH225484   2.219   2.970   0.706 -0.4646  0.3838 -0.2657
 2971TIP3    H125485   2.280   2.962   0.780  0.4385  2.1564 -0.7592
 2971TIP3    H225486   2.276   2.966   0.628 -1.0182  1.6457 -0.7499
 2972TIP3   OH225487   1.986   0.415   2.793 -0.7248 -0.4814 -0.0566
 2972TIP3    H125488   2.032   0.349   2.741 -0.0279 -0.5584  0.6312
 2972TIP3    H225489   1.984   0.492   2.737  0.6442 -0.3408  0.0376
 2973TIP3   OH225490   3.406   0.682   1.784 -0.2107  0.1054 -0.2472
 2973TIP3    H125491   3.475   0.704   1.722  0.4959  1.6032  1.0134
 2973TIP3    H225492   3.328   0.668   1.729  0.8268 -0.5761 -1.5967
 2974TIP3   OH225493   3.610   1.695   1.942 -0.7264 -0.0213 -1.2282
 2974TIP3    H125494   3.590   1.669   1.852 -0.5164 -0.2738 -1.1997
 2974TIP3    H225495   3.610   1.791   1.939  1.6943  0.0251 -2.0466
 2975TIP3   OH225496   1.230   4.383   0.555 -0.1250 -0.0961  0.0669
 2975TIP3    H125497   1.290   4.456   0.569  0.8959 -0.5892 -1.4307
 2975TIP3    H225498   1.244   4.325   0.629  1.4522 -0.3126 -0.3688
 2976TIP3   OH225499   1.323   6.305   8.928 -0.1200 -0.1883 -0.0253
 2976TIP3    H125500   1.297   6.377   8.986  0.2391  0.7631 -1.0013
 2976TIP3    H225501   1.418   6.309   8.927 -0.0340 -1.4790  0.8548
 2977TIP3   OH225502   3.054   2.454   8.491 -0.0394 -0.1240  0.5587
 2977TIP3    H125503   3.001   2.399   8.433 -1.2913 -0.6404  2.1137
 2977TIP3    H225504   3.114   2.500   8.432 -0.3256 -1.6262 -0.9966
 2978TIP3   OH225505   2.938   2.320   0.341 -0.0036  0.1766  0.8788
 2978TIP3    H125506   2.925   2.406   0.300 -0.8307  0.0691  0.9169
 2978TIP3    H225507   2.988   2.270   0.276  1.8387  1.1721  1.4648
 2979TIP3   OH225508   1.943   2.096   6.790 -0.2492  0.0414  0.8272
 2979TIP3    H125509   1.905   2.137   6.712 -0.4923  0.1212  0.9869
 2979TIP3    H225510   1.944   2.002   6.769  1.1454  0.1905  0.0967
 2980TIP3   OH225511   2.858   0.505   7.010  0.3915 -0.1382  0.2546
 2980TIP3    H125512   2.818   0.578   6.963  0.5529  0.1719  0.5982
 2980TIP3    H225513   2.839   0.521   7.102 -0.4132 -1.0484  0.2603
 2981TIP3   OH225514   0.289   0.398   8.092 -0.5403 -0.1902 -0.1816
 2981TIP3    H125515   0.294   0.386   7.997  0.7469  0.7188 -0.2477
 2981TIP3    H225516   0.352   0.467   8.111  0.7266 -1.7316  1.5816
 2982TIP3   OH225517   1.346   3.173   6.937  0.1261 -0.3467  0.0399
 2982TIP3    H125518   1.284   3.113   6.896  0.3741 -0.2323 -0.5195
 2982TIP3    H225519   1.431   3.148   6.900  0.3317 -0.1358  0.3699
 2983TIP3   OH225520   2.975   4.221   1.612  0.0397  0.2477 -0.3551
 2983TIP3    H125521   2.880   4.219   1.596  0.2555 -0.1534 -1.7073
 2983TIP3    H225522   3.011   4.265   1.535  0.8698  1.4415  0.6743
 2984TIP3   OH225523   2.038   1.557   0.422  0.2024 -0.0181 -0.3551
 2984TIP3    H125524   1.966   1.603   0.378  0.6879  0.9891 -0.1150
 2984TIP3    H225525   2.070   1.619   0.487  0.7318 -0.7867  0.1330
 2985TIP3   OH225526   3.998   2.034   6.943 -0.6243  0.5188 -0.8030
 2985TIP3    H125527   3.947   1.984   7.007 -0.0017  0.9974  0.1098
 2985TIP3    H225528   3.947   2.114   6.928 -1.4774 -0.2346 -2.0390
 2986TIP3   OH225529   5.624   4.883   2.516 -0.4173  0.1215 -0.1025
 2986TIP3    H125530   5.651   4.843   2.598  1.5281 -0.9828 -1.2067
 2986TIP3    H225531   5.564   4.820   2.476 -1.7032  0.8516  0.6300
 2987TIP3   OH225532   4.899   4.808   1.641  0.3501  0.0086 -0.1736
 2987TIP3    H125533   4.830   4.864   1.604 -1.3132 -2.1569 -0.5857
 2987TIP3    H225534   4.876   4.800   1.734 -0.6992 -1.6125 -0.5288
 2988TIP3   OH225535   3.431   5.758   0.734  0.4921 -0.1776 -0.0511
 2988TIP3    H125536   3.358   5.795   0.685 -0.3709 -0.8562  0.6952
 2988TIP3    H225537   3.391   5.713   0.808  1.6952 -0.1920  0.6245
 2989TIP3   OH225538   0.570   3.707   8.956 -0.0767 -0.1382  0.0749
 2989TIP3    H125539   0.564   3.615   8.981  2.8026 -0.4056  0.1037
 2989TIP3    H225540   0.553   3.707   8.862 -0.6161 -0.5900  0.1610
 2990TIP3   OH225541   1.541   0.268   8.348 -0.0684  0.5604 -0.0639
 2990TIP3    H125542   1.572   0.322   8.275  0.7400  2.8868  1.8611
 2990TIP3    H225543   1.616   0.262   8.407 -0.7250 -1.1868  0.6697
 2991TIP3   OH225544   4.665   5.355   1.096 -0.3387  0.0774  0.0429
 2991TIP3    H125545   4.623   5.380   1.178  0.3732  1.4077  0.0398
 2991TIP3    H225546   4.729   5.425   1.080 -0.0537 -0.4665 -1.3386
 2992TIP3   OH225547   6.053   1.312   7.432 -0.8209 -0.0463  0.5447
 2992TIP3    H125548   6.038   1.307   7.527  0.6185 -1.2904  0.7520
 2992TIP3    H225549   6.132   1.365   7.423 -1.8138  1.4045 -0.1089
 2993TIP3   OH225550   6.163   3.015   7.687  0.1657 -0.2414 -1.0205
 2993TIP3    H125551   6.251   3.039   7.716  0.3058  0.1464 -1.7398
 2993TIP3    H225552   6.139   3.083   7.624 -0.7546 -0.2016 -0.6407
 2994TIP3   OH225553   6.360   2.985   1.715  0.1437  0.0838 -0.1609
 2994TIP3    H125554   6.404   2.944   1.640  1.0559  0.5945  0.0780
 2994TIP3    H225555   6.284   3.029   1.677  0.9174  0.8383 -0.8878
 2995TIP3   OH225556   6.217   4.677   6.609 -0.3991 -0.2998  0.2364
 2995TIP3    H125557   6.210   4.593   6.565  0.7243  1.1081 -2.8606
 2995TIP3    H225558   6.146   4.730   6.572  0.9020  1.0980 -0.3523
 2996TIP3   OH225559   2.661   6.170   0.895  0.4266  0.7704  0.2457
 2996TIP3    H125560   2.645   6.076   0.887 -1.1223  1.0023  0.2991
 2996TIP3    H225561   2.578   6.211   0.868  0.7796  2.0976  1.0754
 2997TIP3   OH225562   4.650   0.373   6.553  0.6694 -0.1791  0.0212
 2997TIP3    H125563   4.602   0.433   6.495  1.5595 -0.0451 -0.6041
 2997TIP3    H225564   4.741   0.381   6.525  1.1727  0.0841  1.6320
 2998TIP3   OH225565   3.639   1.876   8.631  0.8054 -0.1454  0.8990
 2998TIP3    H125566   3.695   1.803   8.658 -0.7195 -1.8104 -0.2410
 2998TIP3    H225567   3.616   1.857   8.540 -1.7409  0.3390  1.3679
 2999TIP3   OH225568   4.164   3.180   0.800  0.1203 -0.8730  0.2900
 2999TIP3    H125569   4.217   3.110   0.761 -0.1222 -0.9685  0.1273
 2999TIP3    H225570   4.213   3.207   0.878  1.3475  0.2938 -0.8306
 3000TIP3   OH225571   4.419   6.436   2.462  0.3982  0.5467  0.3674
 3000TIP3    H125572   4.375   6.404   2.384  1.0680  0.3899  0.0423
 3000TIP3    H225573   4.351   6.438   2.529  0.1139 -0.6290  0.1385
 3001TIP3   OH225574   3.722   3.412   8.774 -0.0572  0.0576 -0.6878
 3001TIP3    H125575   3.693   3.419   8.684 -1.7786  1.5691 -0.0724
 3001TIP3    H225576   3.653   3.363   8.818  0.0260  0.6452  0.1158
 3002TIP3   OH225577   0.087   5.854   7.046 -0.0935 -0.4354 -0.1636
 3002TIP3    H125578   0.148   5.925   7.030 -0.8912  0.4233  0.4833
 3002TIP3    H225579   0.118   5.782   6.991  1.3752  0.0347  0.0194
 3003TIP3   OH225580   4.932   3.099   8.718  0.3246 -0.4737  0.2199
 3003TIP3    H125581   4.985   3.037   8.669 -2.0612 -2.6765  0.2208
 3003TIP3    H225582   4.952   3.081   8.809 -1.3119 -2.3144  0.2870
 3004TIP3   OH225583   0.264   1.814   6.578  0.3849 -0.0030 -0.0866
 3004TIP3    H125584   0.215   1.784   6.654 -0.2029  0.7366 -0.1637
 3004TIP3    H225585   0.346   1.764   6.581 -0.1366 -0.8487  0.3460
 3005TIP3   OH225586   1.545   5.943   0.811 -0.4955 -0.1785 -0.3210
 3005TIP3    H125587   1.639   5.935   0.797 -0.8203 -1.5999 -2.0362
 3005TIP3    H225588   1.512   5.983   0.731 -1.5188 -1.1660 -0.4163
 3006TIP3   OH225589   2.641   0.252   1.575  0.1615 -0.0966  0.3188
 3006TIP3    H125590   2.652   0.292   1.488 -0.5464 -0.4622  0.0492
 3006TIP3    H225591   2.709   0.186   1.580  0.9221  0.6804  0.5021
 3007TIP3   OH225592   0.964   2.695   8.480 -0.0428 -0.2504 -0.1286
 3007TIP3    H125593   1.023   2.685   8.405  0.1942 -1.4779  0.1983
 3007TIP3    H225594   1.012   2.659   8.554 -0.5823  0.2257  0.4703
 3008TIP3   OH225595   4.581   0.085   3.494  0.2940 -0.6829 -0.1584
 3008TIP3    H125596   4.666   0.116   3.525  0.7693 -2.0733  0.0329
 3008TIP3    H225597   4.576   0.113   3.403  1.3495 -1.2964 -0.4202
 3009TIP3   OH225598   4.307   2.482   0.466 -0.0557 -0.0433  0.3054
 3009TIP3    H125599   4.306   2.561   0.412  2.4805  0.2234  0.5107
 3009TIP3    H225600   4.298   2.514   0.556  0.1531 -0.0466  0.3290
 3010TIP3   OH225601   0.624   3.933   2.230 -0.1794  0.2508  0.6879
 3010TIP3    H125602   0.663   3.991   2.295 -1.0877  0.0001  1.4900
 3010TIP3    H225603   0.673   3.950   2.149  1.7741 -0.3052  1.7132
 3011TIP3   OH225604   1.130   1.371   0.945 -0.5770  0.1622  0.4511
 3011TIP3    H125605   1.046   1.387   0.988 -1.0145 -1.4270  0.2185
 3011TIP3    H225606   1.183   1.328   1.012 -1.1928 -2.1442 -0.4607
 3012TIP3   OH225607   5.555   4.559   9.003  0.8129 -0.1452  0.3206
 3012TIP3    H125608   5.569   4.643   9.045  0.4554 -1.2612  2.8641
 3012TIP3    H225609   5.555   4.496   9.075  0.7926 -2.2990 -1.4590
 3013TIP3   OH225610   2.140   4.643   1.134  0.2803  0.0317  0.3305
 3013TIP3    H125611   2.168   4.676   1.049  0.6909 -0.5913  0.2146
 3013TIP3    H225612   2.208   4.670   1.195  0.9919 -1.1751  0.1108
 3014TIP3   OH225613   4.066   3.837   8.533 -0.4812  0.0668 -0.1682
 3014TIP3    H125614   4.033   3.829   8.623 -0.4687 -1.3735 -0.2627
 3014TIP3    H225615   4.030   3.760   8.488  1.0061 -0.2209 -0.9105
 3015TIP3   OH225616   5.474   3.607   1.848 -0.6604 -0.2164 -0.2903
 3015TIP3    H125617   5.440   3.624   1.760  0.7135 -0.0010 -0.7935
 3015TIP3    H225618   5.519   3.687   1.872 -0.8608 -0.3494  0.5383
 3016TIP3   OH225619   0.708   4.815   1.531 -0.1566 -0.1138 -0.1565
 3016TIP3    H125620   0.648   4.840   1.461 -0.2601  0.3293  0.0880
 3016TIP3    H225621   0.666   4.740   1.573 -0.3330 -0.0702 -0.2532
 3017TIP3   OH225622   5.746   1.940   0.759 -0.2998 -0.1349  0.9294
 3017TIP3    H125623   5.678   1.976   0.816  0.4182 -1.0087  2.4011
 3017TIP3    H225624   5.715   1.959   0.671 -2.0927  0.1458  1.5634
 3018TIP3   OH225625   3.792   1.887   8.228 -0.0844 -0.1411  0.1349
 3018TIP3    H125626   3.809   1.877   8.134 -0.6785 -3.6210  0.2894
 3018TIP3    H225627   3.856   1.830   8.270 -0.7874  0.2261  1.7810
 3019TIP3   OH225628   1.798   1.258   1.030 -0.5284 -0.0213 -0.2844
 3019TIP3    H125629   1.882   1.241   0.987  0.2870 -1.2823  1.6819
 3019TIP3    H225630   1.808   1.346   1.068 -0.2818  0.0227 -0.4499
 3020TIP3   OH225631   1.212   1.654   6.783  0.3284  0.4187 -0.0358
 3020TIP3    H125632   1.171   1.736   6.811 -0.7435 -0.2393  0.3498
 3020TIP3    H225633   1.208   1.597   6.860 -0.2489 -0.4923 -0.7180
 3021TIP3   OH225634   1.542   5.797   0.061  0.2177  0.3005  0.5639
 3021TIP3    H125635   1.637   5.793   0.054  0.1912 -0.9619  0.6161
 3021TIP3    H225636   1.510   5.768  -0.025 -0.1194  0.2159  0.7148
 3022TIP3   OH225637   0.032   3.370   0.899  0.2139 -0.3564 -0.1512
 3022TIP3    H125638   0.110   3.378   0.843 -0.1283 -0.1822 -0.6152
 3022TIP3    H225639  -0.031   3.322   0.844 -0.3862  0.4628 -0.1873
 3023TIP3   OH225640   3.225   5.678   2.183  0.0553  0.0239 -0.2837
 3023TIP3    H125641   3.227   5.682   2.088  0.9344 -0.9538 -0.3287
 3023TIP3    H225642   3.316   5.659   2.208  0.0430  1.3064  0.8071
 3024TIP3   OH225643   5.796   0.816   1.172  0.4073 -0.1170 -0.1928
 3024TIP3    H125644   5.829   0.726   1.169  1.4889  0.2704 -0.5305
 3024TIP3    H225645   5.708   0.808   1.208  0.0686 -1.4344 -1.2232
 3025TIP3   OH225646   2.059   2.345   9.200  0.6939  0.7472 -0.2760
 3025TIP3    H125647   2.033   2.293   9.124  0.7678  1.6603 -0.9434
 3025TIP3    H225648   1.978   2.389   9.227  0.6637  0.4070  0.1881
 3026TIP3   OH225649   3.767   4.133   1.369  0.3547  0.3250 -0.3367
 3026TIP3    H125650   3.710   4.206   1.395  0.2455  0.1553 -0.0966
 3026TIP3    H225651   3.801   4.098   1.451 -0.2398 -0.4159 -0.3909
 3027TIP3   OH225652   6.085   0.377   1.311 -0.6832 -0.5187 -0.6059
 3027TIP3    H125653   6.169   0.402   1.272 -0.4589  1.9687  1.2036
 3027TIP3    H225654   6.081   0.428   1.392 -3.2646 -1.7632  0.1356
 3028TIP3   OH225655   1.770   3.827   6.587 -0.8428 -0.0308  0.1479
 3028TIP3    H125656   1.714   3.767   6.636 -0.1442  0.4588  1.6189
 3028TIP3    H225657   1.714   3.860   6.517 -1.8767 -0.8124  0.5752
 3029TIP3   OH225658   6.126   6.174   8.080  0.2512 -0.1540  0.1067
 3029TIP3    H125659   6.126   6.194   8.174 -1.7744 -0.8889  0.3275
 3029TIP3    H225660   6.039   6.198   8.051  0.8314 -0.0134 -1.5976
 3030TIP3   OH225661   6.401   0.782   7.634 -0.8874  0.1354 -0.0304
 3030TIP3    H125662   6.431   0.776   7.543 -1.7916  0.1095 -0.3327
 3030TIP3    H225663   6.458   0.722   7.682  0.2636  0.9006 -0.3957
 3031TIP3   OH225664   2.102   2.235   6.991  0.3597 -0.1132 -0.3732
 3031TIP3    H125665   2.075   2.218   6.901  0.9493  0.3156 -0.6421
 3031TIP3    H225666   2.053   2.172   7.044 -0.8433  0.3701 -0.8728
 3032TIP3   OH225667   5.002   0.921   7.649  0.2734 -0.4172 -0.1269
 3032TIP3    H125668   4.955   0.902   7.567  2.1254  0.6893 -1.5255
 3032TIP3    H225669   5.087   0.953   7.620  0.9284  0.1490  2.2736
 3033TIP3   OH225670   2.094   1.497   3.108  0.5074  0.0379 -0.3286
 3033TIP3    H125671   2.145   1.568   3.147 -0.0146 -0.0721  0.5640
 3033TIP3    H225672   2.123   1.418   3.153 -0.1131 -0.0869 -0.1433
 3034TIP3   OH225673   2.688   0.286   6.533 -0.0243 -0.2657  0.4442
 3034TIP3    H125674   2.747   0.362   6.529 -1.5635  1.0155  1.2429
 3034TIP3    H225675   2.735   0.218   6.484  3.1381 -0.0690  2.8801
 3035TIP3   OH225676   2.900   4.986   8.848 -0.1737  0.6196  0.1496
 3035TIP3    H125677   2.880   4.970   8.940  0.1017  1.3765  0.3547
 3035TIP3    H225678   2.991   5.016   8.848  0.3669 -0.9365 -0.5557
 3036TIP3   OH225679   4.476   4.609   6.949  0.1867  0.1384 -0.4007
 3036TIP3    H125680   4.537   4.632   6.878  1.4372  1.1984  0.9552
 3036TIP3    H225681   4.454   4.692   6.990 -0.0292 -0.5037  0.8282
 3037TIP3   OH225682   3.670   6.099   1.568  0.0968  1.1091  0.3025
 3037TIP3    H125683   3.690   6.133   1.481 -2.2911  1.4021 -0.1995
 3037TIP3    H225684   3.635   6.175   1.616  1.0396  0.8651  1.4312
 3038TIP3   OH225685   2.475   1.302   0.392  0.2637  0.3419  0.1336
 3038TIP3    H125686   2.492   1.396   0.397 -0.0231  0.4636 -1.0559
 3038TIP3    H225687   2.399   1.294   0.335  0.6576 -0.6510 -0.2683
 3039TIP3   OH225688   2.725   5.002   1.067  0.2628 -0.1353  0.6280
 3039TIP3    H125689   2.630   5.008   1.060  0.4002  2.9352 -0.3539
 3039TIP3    H225690   2.748   5.062   1.138  1.4803 -0.8807  0.8978
 3040TIP3   OH225691   0.098   4.853   9.053  0.4755 -0.2578 -0.1039
 3040TIP3    H125692   0.184   4.887   9.079  0.7345 -1.2805  0.4491
 3040TIP3    H225693   0.044   4.859   9.131 -0.1352  0.8802 -0.5979
 3041TIP3   OH225694   1.721   4.288   7.868  0.3420  0.1116  0.1144
 3041TIP3    H125695   1.791   4.227   7.843 -0.4685 -1.3906  1.3323
 3041TIP3    H225696   1.652   4.271   7.804 -0.2154 -0.9331  0.9457
 3042TIP3   OH225697   2.051   5.635   9.302  0.0239 -0.5408  0.1249
 3042TIP3    H125698   2.062   5.724   9.336 -2.2815 -0.8661  1.9429
 3042TIP3    H225699   2.119   5.584   9.346  0.8205  0.1336 -0.2931
 3043TIP3   OH225700   0.524   0.131   8.236 -0.1065  0.5148 -0.1673
 3043TIP3    H125701   0.462   0.154   8.166 -0.6260 -0.1675  0.0607
 3043TIP3    H225702   0.469   0.120   8.314  0.3028 -0.0080  0.0528
 3044TIP3   OH225703   2.504   3.876   2.447 -0.4130  0.0026 -0.3519
 3044TIP3    H125704   2.555   3.850   2.524  2.1333 -0.1163 -1.9369
 3044TIP3    H225705   2.543   3.960   2.420 -1.4566  0.1960 -1.3374
 3045TIP3   OH225706   5.370   1.518   7.736 -0.0617  0.0695  0.3307
 3045TIP3    H125707   5.397   1.460   7.807 -0.7513 -1.1175 -0.3444
 3045TIP3    H225708   5.326   1.591   7.780 -0.7184 -0.7792  1.1110
 3046TIP3   OH225709   6.387   5.827   8.262 -0.0498 -0.0833  0.6216
 3046TIP3    H125710   6.353   5.916   8.266  0.5040  0.1581  0.1979
 3046TIP3    H225711   6.465   5.834   8.206  1.0999 -0.4857  2.0957
 3047TIP3   OH225712   4.276   5.907   1.804 -0.0187 -0.0171 -0.1719
 3047TIP3    H125713   4.293   5.961   1.727 -0.2595 -0.8520 -0.8335
 3047TIP3    H225714   4.361   5.898   1.847  0.3368 -0.3991 -0.9270
 3048TIP3   OH225715   5.390   5.062   8.622 -0.2306  0.1381  0.1138
 3048TIP3    H125716   5.297   5.077   8.640 -0.3617 -1.2563  0.7645
 3048TIP3    H225717   5.431   5.147   8.635 -1.0599  0.2789  2.3608
 3049TIP3   OH225718   2.602   6.268   7.744 -0.0867  0.3819  0.7709
 3049TIP3    H125719   2.618   6.267   7.650 -1.8196  1.0561  0.4337
 3049TIP3    H225720   2.629   6.181   7.774  0.1647  0.0375 -0.3887
 3050TIP3   OH225721   0.886   1.046   8.205  0.0618 -0.3192  0.6164
 3050TIP3    H125722   0.901   1.059   8.111  1.9284 -1.9495  0.6207
 3050TIP3    H225723   0.791   1.041   8.213 -0.1289 -0.8448 -1.3224
 3051TIP3   OH225724   5.105   2.208   2.302 -0.2185 -0.2954 -0.9961
 3051TIP3    H125725   5.109   2.175   2.212  0.7782 -0.2659 -0.9744
 3051TIP3    H225726   5.159   2.147   2.352  0.1327  0.3187 -0.6166
 3052TIP3   OH225727   6.392   1.839   6.622  0.0539 -0.1195  0.7558
 3052TIP3    H125728   6.343   1.915   6.590  1.6162  0.4541 -0.4099
 3052TIP3    H225729   6.472   1.876   6.661  2.1626 -1.1400 -2.1787
 3053TIP3   OH225730   2.336   2.235   0.046 -0.0576 -0.0415 -0.2105
 3053TIP3    H125731   2.292   2.279   0.119  0.1551 -1.3163  0.7157
 3053TIP3    H225732   2.429   2.235   0.071 -0.0939 -1.3240 -0.0069
 3054TIP3   OH225733   1.988   0.018   7.877 -0.3752 -0.4891 -0.3573
 3054TIP3    H125734   1.951   0.092   7.927  2.9339  0.8148  0.4387
 3054TIP3    H225735   2.082   0.037   7.872  0.6803 -4.6773 -0.1474
 3055TIP3   OH225736   5.349   5.013   6.432 -0.9180 -0.2011 -0.7949
 3055TIP3    H125737   5.296   4.948   6.386 -0.8703 -0.4405 -0.5143
 3055TIP3    H225738   5.405   4.962   6.490  0.0358  0.0109 -1.4987
 3056TIP3   OH225739   4.619   5.727   2.094  0.8757  0.6028  0.0142
 3056TIP3    H125740   4.558   5.659   2.123  0.7657  0.3769 -0.7391
 3056TIP3    H225741   4.573   5.773   2.025  2.2561 -0.8111 -1.9553
 3057TIP3   OH225742   6.004   2.446   7.875 -0.1275  0.0562  0.3376
 3057TIP3    H125743   6.022   2.491   7.957  2.4510  1.2719 -0.7772
 3057TIP3    H225744   5.912   2.421   7.881 -0.8570  2.7672  2.3110
 3058TIP3   OH225745   5.966   6.238   8.444 -0.4715 -0.1775  0.2637
 3058TIP3    H125746   5.951   6.237   8.538 -1.0606  0.1018  0.1801
 3058TIP3    H225747   5.886   6.200   8.407 -0.5661  0.4293 -0.1587
 3059TIP3   OH225748   0.180   4.945   2.827  0.5280  0.2457 -0.2960
 3059TIP3    H125749   0.200   5.039   2.829 -1.8952  0.8580 -1.2021
 3059TIP3    H225750   0.101   4.937   2.880  0.2917 -1.1785 -0.8322
 3060TIP3   OH225751   1.874   1.306   7.686  0.7434 -0.0300  0.3001
 3060TIP3    H125752   1.811   1.378   7.694  2.5188  2.1204 -2.8276
 3060TIP3    H225753   1.842   1.239   7.747 -1.0001  3.3726  3.5594
 3061TIP3   OH225754   1.011   4.954   0.351  0.3988  0.1799  0.4061
 3061TIP3    H125755   1.021   5.024   0.286  1.1057 -0.9226 -0.7226
 3061TIP3    H225756   1.089   4.900   0.340 -0.6380 -1.4221  0.4357
 3062TIP3   OH225757   5.098   6.316   9.330 -0.6346 -0.6479 -0.8444
 3062TIP3    H125758   5.121   6.369   9.254 -1.7982  0.8238 -0.2291
 3062TIP3    H225759   5.182   6.297   9.372 -0.2076  2.2564 -0.1415
 3063TIP3   OH225760   5.718   0.564   1.902 -0.2666 -0.0473  0.3138
 3063TIP3    H125761   5.807   0.529   1.912  0.1709  0.7501 -0.6377
 3063TIP3    H225762   5.685   0.571   1.991  0.6418 -0.3206  0.6826
 3064TIP3   OH225763   4.026   5.705   0.652 -0.0806 -0.0982 -0.4704
 3064TIP3    H125764   4.046   5.795   0.676 -1.3485  0.2603 -0.6731
 3064TIP3    H225765   4.076   5.652   0.714  0.9795  0.7301 -0.5937
 3065TIP3   OH225766   3.939   0.465   0.362 -0.5218 -0.0384  0.1093
 3065TIP3    H125767   3.922   0.498   0.451  1.1919 -1.0894  0.8817
 3065TIP3    H225768   3.984   0.537   0.319 -0.3060  0.0556  0.4825
 3066TIP3   OH225769   5.939   1.227   0.995  0.4216 -0.4740 -0.0293
 3066TIP3    H125770   6.011   1.177   0.956 -0.4666 -1.5658 -0.3274
 3066TIP3    H225771   5.951   1.317   0.963  0.5651 -1.0412 -1.6458
 3067TIP3   OH225772   1.582   0.237   1.797  0.2753 -0.2197  0.5606
 3067TIP3    H125773   1.532   0.282   1.729 -3.0569 -0.4730  2.6098
 3067TIP3    H225774   1.574   0.144   1.776  2.4538 -0.2193 -0.6199
 3068TIP3   OH225775   3.972   5.987   2.731 -0.5164  0.7223  0.3251
 3068TIP3    H125776   4.037   5.959   2.795  1.2938 -0.6774 -1.9835
 3068TIP3    H225777   3.906   5.917   2.732 -0.2166  0.4402  0.2523
 3069TIP3   OH225778   4.946   3.431   2.305 -0.2037 -0.4839 -0.5215
 3069TIP3    H125779   4.860   3.413   2.268 -0.4701 -1.6932  0.6229
 3069TIP3    H225780   4.930   3.438   2.400  1.0720 -1.5703 -0.2060
 3070TIP3   OH225781   3.226   0.381   1.008 -0.2888 -0.2535  0.8579
 3070TIP3    H125782   3.212   0.293   0.974  0.1360  0.4714 -1.3398
 3070TIP3    H225783   3.231   0.370   1.103  2.1214 -2.9405  0.5382
 3071TIP3   OH225784   4.899   4.102   7.129  0.9228  0.1875 -0.3534
 3071TIP3    H125785   4.889   4.024   7.074 -0.1251  0.6664 -0.8824
 3071TIP3    H225786   4.926   4.069   7.214  1.2886 -0.6830 -0.8007
 3072TIP3   OH225787   5.883   2.493   8.594 -0.2518  0.8470 -0.1628
 3072TIP3    H125788   5.917   2.573   8.553  0.8367 -0.2321 -1.4375
 3072TIP3    H225789   5.948   2.426   8.575 -1.2889 -0.4376  0.6273
 3073TIP3   OH225790   4.807   4.029   1.704  0.5680  0.0941 -0.7781
 3073TIP3    H125791   4.847   3.988   1.781  1.1626 -0.7469 -1.5059
 3073TIP3    H225792   4.837   4.120   1.707 -0.1015  0.3007  0.4241
 3074TIP3   OH225793   4.217   1.961   9.308  0.0251 -0.2851  0.5610
 3074TIP3    H125794   4.163   1.902   9.256 -3.0899  0.9960  2.0562
 3074TIP3    H225795   4.168   2.044   9.308  2.5688  1.3224  1.2119
 3075TIP3   OH225796   6.204   3.223   1.650  0.2897  0.3179  0.2573
 3075TIP3    H125797   6.273   3.264   1.702  0.7619  0.6122 -0.5850
 3075TIP3    H225798   6.137   3.291   1.641  0.0129  0.1246  0.8398
 3076TIP3   OH225799   4.615   4.331   1.632  0.4036 -0.0790 -1.1826
 3076TIP3    H125800   4.597   4.419   1.599  1.0919  0.1013 -1.0909
 3076TIP3    H225801   4.535   4.306   1.679 -0.1136  0.1623 -1.9074
 3077TIP3   OH225802   3.963   4.624   2.112 -0.5473 -0.0866 -0.1767
 3077TIP3    H125803   4.029   4.593   2.174  0.1951 -0.8116 -1.2851
 3077TIP3    H225804   3.882   4.628   2.163  0.0982 -0.3456  0.9093
 3078TIP3   OH225805   0.238   4.982   7.205 -0.4539  0.1021  0.0656
 3078TIP3    H125806   0.315   4.951   7.254 -1.3018 -0.9378  0.7913
 3078TIP3    H225807   0.257   5.074   7.186  0.8358 -0.0561  0.4966
 3079TIP3   OH225808   3.622   1.120   3.446 -0.4009 -0.2252 -0.1309
 3079TIP3    H125809   3.653   1.030   3.455 -0.5155 -0.5069 -2.1442
 3079TIP3    H225810   3.654   1.148   3.359 -1.5686  1.1852 -0.1438
 3080TIP3   OH225811   0.293   5.852   7.353  0.0652  0.8166 -0.3501
 3080TIP3    H125812   0.200   5.870   7.337  0.2938 -0.2286 -3.7138
 3080TIP3    H225813   0.293   5.769   7.401 -0.8069  0.1359 -1.4547
 3081TIP3   OH225814   5.683   2.213   9.107 -0.4470  0.2495  0.3027
 3081TIP3    H125815   5.685   2.133   9.159 -0.2484 -0.1025 -0.2322
 3081TIP3    H225816   5.633   2.189   9.029 -0.2578  0.6026  0.0724
 3082TIP3   OH225817   6.062   4.274   7.620 -0.1980 -0.6532  0.5341
 3082TIP3    H125818   6.094   4.358   7.585  0.3569 -0.3418  1.7206
 3082TIP3    H225819   6.141   4.220   7.626 -0.4147 -0.9628  0.5764
 3083TIP3   OH225820   2.140   4.624   2.151 -0.4032 -0.0491  0.1958
 3083TIP3    H125821   2.200   4.642   2.224 -2.9593  0.5730  2.2721
 3083TIP3    H225822   2.141   4.529   2.142  2.4926  0.0060 -1.3676
 3084TIP3   OH225823   1.833   4.168   1.172  0.2829  0.6891  0.2188
 3084TIP3    H125824   1.890   4.238   1.141  0.4021  0.4480 -0.1171
 3084TIP3    H225825   1.785   4.140   1.094  1.5965 -0.8835 -0.0769
 3085TIP3   OH225826   3.791   1.887   7.069 -0.0418  0.5856 -0.3932
 3085TIP3    H125827   3.752   1.856   7.151  0.3582  0.7172 -0.1512
 3085TIP3    H225828   3.826   1.809   7.027  0.5053  0.6340 -0.0316
 3086TIP3   OH225829   0.926   0.116   9.017 -0.8928 -0.6163  0.0258
 3086TIP3    H125830   0.882   0.201   9.021  3.3960  1.8533  0.3239
 3086TIP3    H225831   0.908   0.084   8.928 -0.9139  1.6910 -0.8664
 3087TIP3   OH225832   4.213   3.147   8.489  0.1365 -0.1747  0.0121
 3087TIP3    H125833   4.228   3.178   8.399 -0.5532  0.1630  0.0110
 3087TIP3    H225834   4.240   3.220   8.544 -0.3200 -0.0331  0.0485
 3088TIP3   OH225835   4.966   4.340   2.858 -0.2225 -0.2405 -0.3881
 3088TIP3    H125836   5.025   4.374   2.925 -2.0530  0.9872  0.7036
 3088TIP3    H225837   4.906   4.283   2.906 -1.7276  0.8565 -0.8920
 3089TIP3   OH225838   0.392   3.522   8.553  0.0016  0.0065  0.2564
 3089TIP3    H125839   0.345   3.549   8.632  0.5030 -0.9612  0.9093
 3089TIP3    H225840   0.459   3.461   8.584  0.5979  0.0583 -0.8509
 3090TIP3   OH225841   6.075   0.741   8.342  0.1158 -0.5609 -0.4979
 3090TIP3    H125842   6.006   0.805   8.358 -1.2848 -2.1360  0.1055
 3090TIP3    H225843   6.037   0.680   8.279  1.1324 -1.2212 -0.4935
 3091TIP3   OH225844   1.459   4.418   1.088  0.1466 -0.1223  0.6211
 3091TIP3    H125845   1.364   4.405   1.092  0.3399 -1.3717  1.7426
 3091TIP3    H225846   1.485   4.380   1.004 -0.2186 -0.7007  0.7650
 3092TIP3   OH225847   2.390   4.560   0.944  0.1516  0.2127  0.2766
 3092TIP3    H125848   2.436   4.478   0.925  2.0482  1.4227 -0.6060
 3092TIP3    H225849   2.427   4.588   1.028  0.8859  1.0569 -0.3108
 3093TIP3   OH225850   1.880   4.231   1.597 -0.2170 -0.4771  0.5462
 3093TIP3    H125851   1.807   4.289   1.576 -0.9006 -1.3194  0.5608
 3093TIP3    H225852   1.869   4.209   1.689 -0.0071 -0.6974  0.5219
 3094TIP3   OH225853   3.300   6.102   0.655 -0.0514 -0.2689 -0.0513
 3094TIP3    H125854   3.253   6.024   0.628 -1.5900  0.8808 -0.8482
 3094TIP3    H225855   3.291   6.104   0.750 -0.9870 -0.4556 -0.1341
 3095TIP3   OH225856   1.524   0.500   1.867  0.1355 -0.5365 -0.5438
 3095TIP3    H125857   1.558   0.411   1.857  2.9665  0.3257  0.2907
 3095TIP3    H225858   1.588   0.543   1.924 -1.3941  1.9060 -0.5526
 3096TIP3   OH225859   5.840   2.582   1.251 -0.4048 -0.5370  0.0042
 3096TIP3    H125860   5.762   2.557   1.202 -0.0768 -1.1391 -0.2214
 3096TIP3    H225861   5.875   2.500   1.285  0.3473 -0.3255 -0.2281
 3097TIP3   OH225862   3.103   3.355   8.809  0.3293  0.4487  0.1501
 3097TIP3    H125863   3.034   3.296   8.841  0.8669 -0.6775 -0.7010
 3097TIP3    H225864   3.056   3.428   8.768 -0.3647 -0.2916 -0.3948
 3098TIP3   OH225865   3.478   5.805   1.433  0.2415 -0.0471  0.0188
 3098TIP3    H125866   3.455   5.801   1.526  3.2517  0.9053  0.9513
 3098TIP3    H225867   3.513   5.893   1.421 -1.1036  0.2339 -2.3447
 3099TIP3   OH225868   2.464   2.555   1.105 -0.1981  0.1271  0.2385
 3099TIP3    H125869   2.498   2.553   1.194  0.5131 -0.8663 -0.0422
 3099TIP3    H225870   2.371   2.572   1.115 -0.5387 -2.0898  1.3147
 3100TIP3   OH225871   1.817   1.051   1.974  0.3425 -0.7965  0.5094
 3100TIP3    H125872   1.725   1.062   1.996  0.1550 -2.4520  0.6813
 3100TIP3    H225873   1.862   1.117   2.027 -0.8182  0.9381 -0.5776
 3101TIP3   OH225874   0.288   5.662   2.117  0.7164 -0.2273  0.0535
 3101TIP3    H125875   0.340   5.732   2.079 -1.6341  1.5512 -0.1405
 3101TIP3    H225876   0.212   5.654   2.059 -0.7188 -0.5915  1.8674
 3102TIP3   OH225877   0.467   3.995   0.574 -0.3392 -0.3588 -0.4093
 3102TIP3    H125878   0.474   4.011   0.668 -0.0242 -1.9122 -0.1449
 3102TIP3    H225879   0.541   3.938   0.554  0.4083  1.0341 -1.8904
 3103TIP3   OH225880   0.764   6.189   2.194 -0.2814 -0.1186 -0.6851
 3103TIP3    H125881   0.839   6.142   2.230  0.2691  0.5660 -0.9058
 3103TIP3    H225882   0.697   6.184   2.263 -0.2591 -1.2428 -0.7233
 3104TIP3   OH225883   1.853   0.602   1.677  0.3461 -0.1287 -0.2400
 3104TIP3    H125884   1.852   0.690   1.714 -0.6397 -0.5243  0.7244
 3104TIP3    H225885   1.798   0.607   1.599 -1.4597 -0.3455  0.9723
 3105TIP3   OH225886   6.379   0.682   0.023 -0.6547  0.0918 -0.5486
 3105TIP3    H125887   6.288   0.659   0.006 -0.2059 -1.1523 -1.3556
 3105TIP3    H225888   6.427   0.600   0.015  0.4541  0.5855  0.6009
 3106TIP3   OH225889   1.324   3.935   3.289 -0.3072 -0.0812  0.1706
 3106TIP3    H125890   1.234   3.961   3.307 -0.2138  1.2436 -1.0577
 3106TIP3    H225891   1.316   3.856   3.237 -0.6773 -1.1907  1.8416
 3107TIP3   OH225892   5.091   5.307   8.128  0.3110 -0.3080 -0.0855
 3107TIP3    H125893   5.021   5.295   8.192  0.9647 -3.2055  0.2224
 3107TIP3    H225894   5.119   5.397   8.140 -0.8534 -0.1930  2.4113
 3108TIP3   OH225895   1.156   0.149   7.194  0.1489 -0.2047  0.0514
 3108TIP3    H125896   1.170   0.171   7.286  0.1428 -0.0456  0.0145
 3108TIP3    H225897   1.067   0.113   7.192  0.2694 -0.5179  0.1607
 3109TIP3   OH225898   1.084   1.791   1.890 -0.0585  0.4106  0.1435
 3109TIP3    H125899   1.093   1.841   1.809  0.0658  0.1864  0.0189
 3109TIP3    H225900   1.028   1.846   1.945  1.5539  1.5459  0.7052
 3110TIP3   OH225901   3.151   1.239   2.334  0.2892 -0.1920  0.6127
 3110TIP3    H125902   3.129   1.332   2.321  0.5550 -0.2757 -0.5121
 3110TIP3    H225903   3.246   1.239   2.346  0.2779 -0.3055  0.6928
 3111TIP3   OH225904   0.009   2.936   0.313  0.3352 -0.1316  0.0127
 3111TIP3    H125905   0.092   2.951   0.268 -0.9519  0.9641 -2.1164
 3111TIP3    H225906  -0.019   3.023   0.342 -0.9962 -0.1704 -1.0598
 3112TIP3   OH225907   2.018   4.975   1.581  0.0408  0.8711  0.2980
 3112TIP3    H125908   2.069   4.950   1.504  0.3422  0.7772  0.5281
 3112TIP3    H225909   1.950   4.909   1.588  1.2486 -0.3173  1.3160
 3113TIP3   OH225910   2.150   0.357   8.445 -0.4507 -0.2942 -0.6305
 3113TIP3    H125911   2.138   0.444   8.407 -1.4440 -0.4326 -0.6589
 3113TIP3    H225912   2.126   0.297   8.374 -1.0411 -0.5698 -0.1956
 3114TIP3   OH225913   5.339   6.379   0.931 -0.3008  0.0211 -0.4427
 3114TIP3    H125914   5.260   6.424   0.961  0.9680  1.3357  1.0850
 3114TIP3    H225915   5.390   6.446   0.886  0.7189 -0.3769  0.0807
 3115TIP3   OH225916   0.548   5.937   7.464  0.1377 -0.5326 -0.1481
 3115TIP3    H125917   0.476   5.900   7.412 -0.8575 -0.4409  1.1157
 3115TIP3    H225918   0.505   5.999   7.523  1.4835  0.8262 -0.5421
 3116TIP3   OH225919   2.266   2.854   1.529 -0.4216  0.2605  0.3436
 3116TIP3    H125920   2.308   2.846   1.614  1.5617  1.5425 -0.4512
 3116TIP3    H225921   2.296   2.938   1.495 -0.7416 -0.4462 -1.8544
 3117TIP3   OH225922   5.018   1.042   7.919 -0.0838 -0.1378  0.0951
 3117TIP3    H125923   5.112   1.048   7.934 -0.1504 -0.0759  0.5179
 3117TIP3    H225924   5.009   0.999   7.834  0.3223 -0.4620  0.2154
 3118TIP3   OH225925   0.388   0.841   6.544  0.4328  0.2930 -0.2019
 3118TIP3    H125926   0.301   0.881   6.537 -0.2342 -1.0240  0.2811
 3118TIP3    H225927   0.431   0.863   6.461 -0.6033  0.4181 -0.7247
 3119TIP3   OH225928   2.277   0.098   1.361  0.2098  0.0558  0.2603
 3119TIP3    H125929   2.356   0.052   1.332  0.4899  0.5579  0.2084
 3119TIP3    H225930   2.242   0.138   1.282 -0.3318 -0.5028  0.2111
 3120TIP3   OH225931   2.781   5.854   7.647  0.3683  0.4002  0.6533
 3120TIP3    H125932   2.716   5.785   7.634  0.6602  0.0547  1.0082
 3120TIP3    H225933   2.862   5.807   7.667  0.8473  0.8147 -0.3058
 3121TIP3   OH225934   2.424   2.533   0.386  0.1295 -0.6496 -0.1568
 3121TIP3    H125935   2.406   2.627   0.389 -3.2659 -1.1335 -0.6410
 3121TIP3    H225936   2.429   2.506   0.478 -1.6818 -0.3335  0.0792
 3122TIP3   OH225937   4.060   0.400   1.688  0.6302 -0.2205 -0.3445
 3122TIP3    H125938   3.997   0.340   1.728  1.5484 -0.2123  1.1731
 3122TIP3    H225939   4.131   0.343   1.658  0.2480 -0.1561 -1.4270
 3123TIP3   OH225940   3.208   1.327   8.832 -0.3235  0.6328 -0.7695
 3123TIP3    H125941   3.254   1.272   8.895  1.9457  1.6283 -1.4507
 3123TIP3    H225942   3.115   1.308   8.846  0.2700 -1.5630  0.6140
 3124TIP3   OH225943   5.493   2.711   8.968 -0.0016 -0.2381 -0.2458
 3124TIP3    H125944   5.562   2.774   8.989 -0.0696 -0.3764  0.4398
 3124TIP3    H225945   5.532   2.626   8.988 -0.9459 -0.2290  1.9756
 3125TIP3   OH225946   4.993   3.226   0.180 -0.2599  0.5079 -0.1208
 3125TIP3    H125947   4.917   3.192   0.133  0.4313  0.0311 -0.9301
 3125TIP3    H225948   5.050   3.260   0.112  0.7100 -0.0704  0.3665
 3126TIP3   OH225949   6.296   6.340   2.106 -0.4070  0.5741 -0.3792
 3126TIP3    H125950   6.375   6.394   2.105  1.1858 -1.4166  2.6636
 3126TIP3    H225951   6.284   6.314   2.015  0.1243  3.9828 -1.5534
 3127TIP3   OH225952   2.893   0.762   3.554 -0.3162 -0.0782 -0.7723
 3127TIP3    H125953   2.878   0.825   3.624 -0.4247  1.3550 -2.0462
 3127TIP3    H225954   2.874   0.810   3.474  0.1216 -1.5840 -1.8152
 3128TIP3   OH225955   4.824   5.740   3.111  0.2259  0.1362  0.2827
 3128TIP3    H125956   4.884   5.666   3.100  0.2893  0.2191  0.0560
 3128TIP3    H225957   4.778   5.722   3.193 -1.1746 -1.1691 -0.7318
 3129TIP3   OH225958   2.435   0.687   9.390 -0.3867  0.0468  0.3482
 3129TIP3    H125959   2.467   0.762   9.441 -1.3090  0.2824  0.6106
 3129TIP3    H225960   2.413   0.725   9.305  1.3078 -0.3768 -0.3207
 3130TIP3   OH225961   2.062   0.894   3.424  0.4781  0.6180  0.1184
 3130TIP3    H125962   2.115   0.942   3.360 -0.1117 -0.5359 -1.2670
 3130TIP3    H225963   1.992   0.854   3.373  1.2480 -2.1916  1.0882
 3131TIP3   OH225964   1.672   3.006   1.583  0.0661 -0.2145  0.3329
 3131TIP3    H125965   1.615   3.082   1.571 -0.4795 -0.5972  0.4907
 3131TIP3    H225966   1.694   3.006   1.676  0.8394  0.2953  0.1553
 3132TIP3   OH225967   1.363   0.168   8.039 -0.7000 -0.3759 -0.3712
 3132TIP3    H125968   1.342   0.207   8.124  0.3857  0.4119 -0.4453
 3132TIP3    H225969   1.288   0.188   7.984 -0.9018  0.1165  0.0773
 3133TIP3   OH225970   4.747   4.756   8.851  0.5474 -0.2974  0.3863
 3133TIP3    H125971   4.693   4.832   8.830  0.6981 -0.0810  0.7719
 3133TIP3    H225972   4.830   4.773   8.806  0.6042 -0.1966  0.5260
 3134TIP3   OH225973   4.378   0.226   6.469  0.3297 -0.8124  0.3060
 3134TIP3    H125974   4.473   0.228   6.459  0.2350  1.6216 -0.7367
 3134TIP3    H225975   4.363   0.233   6.563  1.2704  3.6637  0.3479
 3135TIP3   OH225976   2.273   5.470   9.377  0.1500  0.1840 -0.6024
 3135TIP3    H125977   2.325   5.542   9.411 -0.2191  0.0097  0.3645
 3135TIP3    H225978   2.338   5.410   9.339  0.9475 -1.0114  2.3522
 3136TIP3   OH225979   0.313   3.101   0.925  0.4786 -0.1219  0.1421
 3136TIP3    H125980   0.219   3.088   0.917 -0.1447  3.5235  0.2458
 3136TIP3    H225981   0.328   3.113   1.019  0.7111  1.0990 -0.0330
 3137TIP3   OH225982   3.473   5.024   7.683 -0.2128  0.5474  0.3459
 3137TIP3    H125983   3.430   4.956   7.735 -0.8426  2.2861  2.2266
 3137TIP3    H225984   3.409   5.094   7.676  0.7312  1.3469 -0.7615
 3138TIP3   OH225985   5.815   5.462   1.476  0.6225 -0.0261  0.3874
 3138TIP3    H125986   5.904   5.428   1.486  0.7265 -0.6461 -2.0668
 3138TIP3    H225987   5.823   5.556   1.491  1.8363  0.0244 -0.4793
 3139TIP3   OH225988   0.462   3.102   0.687  0.5658  0.0253  0.1281
 3139TIP3    H125989   0.384   3.073   0.641  1.5781 -0.5159 -1.3025
 3139TIP3    H225990   0.433   3.114   0.778 -1.3292  0.5491 -0.5047
 3140TIP3   OH225991   3.711   0.972   3.214  0.1417  0.0353 -0.6853
 3140TIP3    H125992   3.689   0.932   3.129  2.3595 -1.3619 -0.6597
 3140TIP3    H225993   3.703   0.900   3.277  1.4290  0.3007 -0.1915
 3141TIP3   OH225994   0.675   3.592   0.759 -0.2815  0.1352 -0.1431
 3141TIP3    H125995   0.678   3.502   0.726  0.9312  0.4785 -1.0575
 3141TIP3    H225996   0.601   3.593   0.820 -0.9655 -1.2040 -0.9028
 3142TIP3   OH225997   3.447   5.708   1.763 -0.3933  0.1101  0.7884
 3142TIP3    H125998   3.470   5.654   1.838 -1.0203 -0.3336  0.6701
 3142TIP3    H225999   3.512   5.778   1.762  1.5117 -1.5892 -0.0964
 3143TIP3   OH226000   0.500   0.386   0.040  0.3430 -0.2047  0.3341
 3143TIP3    H126001   0.566   0.395   0.109 -0.2383  0.7000  0.7855
 3143TIP3    H226002   0.433   0.329   0.079 -0.1304  0.5484  0.6400
 3144TIP3   OH226003   1.256   2.077   8.734  0.0388 -0.7928  0.4067
 3144TIP3    H126004   1.243   2.142   8.802  1.0927  0.7245 -0.7722
 3144TIP3    H226005   1.307   2.008   8.776  0.2710 -0.0964  1.2890
 3145TIP3   OH226006   1.176   1.114   1.519  0.1011  0.0484 -0.0731
 3145TIP3    H126007   1.199   1.207   1.528 -3.2528  0.9364  0.3506
 3145TIP3    H226008   1.120   1.110   1.442 -0.2129 -1.5748  0.1952
 3146TIP3   OH226009   6.034   5.758   7.772 -0.2923  0.1501 -0.1087
 3146TIP3    H126010   5.983   5.771   7.692 -1.1026 -1.8152  0.0300
 3146TIP3    H226011   5.988   5.689   7.819  0.0882  1.3122  2.1435
 3147TIP3   OH226012   2.833   6.179   0.479  0.3413  0.1532  0.2104
 3147TIP3    H126013   2.835   6.115   0.550 -2.1643 -0.9421 -0.5479
 3147TIP3    H226014   2.744   6.214   0.481  1.1629  2.4438 -0.4448
 3148TIP3   OH226015   4.795   1.366   7.504 -0.7646  0.2066 -0.2452
 3148TIP3    H126016   4.815   1.456   7.476 -0.0120  0.1576  0.1077
 3148TIP3    H226017   4.713   1.374   7.552 -0.5659  0.7509  0.0169
 3149TIP3   OH226018   1.397   1.074   0.397  0.4308 -0.1117  0.2610
 3149TIP3    H126019   1.382   1.005   0.333  0.7446  0.6092 -0.5992
 3149TIP3    H226020   1.492   1.080   0.404  0.4396  0.9249 -0.4538
 3150TIP3   OH226021   0.383   1.924   8.973 -0.3456 -0.1902  0.1334
 3150TIP3    H126022   0.434   1.843   8.976 -0.0746 -0.0799 -1.0745
 3150TIP3    H226023   0.309   1.908   9.032  1.1416 -0.2836  2.0884
 3151TIP3   OH226024   6.228   4.400   6.581 -0.1451  0.2024 -0.5642
 3151TIP3    H126025   6.242   4.386   6.487 -0.4377  0.1429 -0.6015
 3151TIP3    H226026   6.135   4.381   6.594  0.5469 -3.5007  0.3898
 3152TIP3   OH226027   6.257   1.717   1.983  0.1086  0.1101 -0.0611
 3152TIP3    H126028   6.197   1.732   1.909 -0.0476  2.0771  0.3962
 3152TIP3    H226029   6.251   1.798   2.034 -0.5629 -1.5830  2.6871
 3153TIP3   OH226030   5.081   5.985   7.078 -0.7731  0.0682  0.2506
 3153TIP3    H126031   5.073   6.001   7.172 -1.0967 -0.8418  0.3906
 3153TIP3    H226032   5.004   6.027   7.039 -0.7661  0.2396  0.4233
 3154TIP3   OH226033   3.820   0.974   6.693  0.4217  0.2123  1.0263
 3154TIP3    H126034   3.848   1.015   6.775  0.7254  0.5091  0.7765
 3154TIP3    H226035   3.757   1.036   6.656  1.5189  0.8933  0.2244
 3155TIP3   OH226036   4.355   1.350   2.406 -0.6126 -1.0370  0.1212
 3155TIP3    H126037   4.373   1.418   2.341  0.2869 -1.8750 -0.5374
 3155TIP3    H226038   4.315   1.397   2.479  1.0882  0.4340  0.1871
 3156TIP3   OH226039   4.410   5.761   7.276 -0.0513  0.2880  0.3561
 3156TIP3    H126040   4.427   5.736   7.185  1.5834 -1.1565  1.0125
 3156TIP3    H226041   4.355   5.691   7.310  0.5165  0.0809  0.8602
 3157TIP3   OH226042   0.950   4.744   7.720 -0.0769  0.2734  0.5499
 3157TIP3    H126043   0.995   4.797   7.654  1.0884 -0.2335  0.9049
 3157TIP3    H226044   0.969   4.787   7.803 -1.0390  0.5710  0.6287
 3158TIP3   OH226045   2.536   1.180   1.627 -0.4890 -0.2517  0.4745
 3158TIP3    H126046   2.472   1.242   1.660 -0.1193 -0.1816  1.0687
 3158TIP3    H226047   2.484   1.108   1.592 -0.9196  0.3533 -0.1680
 3159TIP3   OH226048   4.019   0.608   8.792  0.6998  0.1951  0.0961
 3159TIP3    H126049   3.970   0.601   8.710  0.7157  0.6160  0.0474
 3159TIP3    H226050   4.101   0.650   8.767  0.4208  0.9578  0.4332
 3160TIP3   OH226051   5.641   1.810   8.929 -0.3661  0.5505 -0.0553
 3160TIP3    H126052   5.721   1.861   8.939 -2.1538  3.7245 -0.5281
 3160TIP3    H226053   5.667   1.720   8.951  3.4967  1.2001 -1.2015
 3161TIP3   OH226054   4.570   1.686   7.891  0.3656 -0.3717 -0.1301
 3161TIP3    H126055   4.486   1.656   7.924  0.6075  0.0084  0.8574
 3161TIP3    H226056   4.561   1.781   7.884 -0.5710 -0.5531 -3.7163
 3162TIP3   OH226057   3.753   6.238   8.479 -0.1230 -0.0358  0.1001
 3162TIP3    H126058   3.698   6.248   8.401  1.5983 -0.3481 -1.1957
 3162TIP3    H226059   3.724   6.308   8.537 -1.0828  0.5454 -1.0189
 3163TIP3   OH226060   4.145   0.321   2.733  0.1592 -0.0837 -0.9817
 3163TIP3    H126061   4.104   0.293   2.651 -0.0177  0.1052 -0.9582
 3163TIP3    H226062   4.105   0.265   2.799 -1.3115  1.2049 -0.7204
 3164TIP3   OH226063   0.144   3.520   1.255 -0.5960  0.7069  0.0909
 3164TIP3    H126064   0.095   3.453   1.207  0.6290 -0.0410 -0.1517
 3164TIP3    H226065   0.161   3.588   1.190 -0.9860  0.8010  0.0837
 3165TIP3   OH226066   0.896   2.726   9.320 -0.0138  0.3020  0.1725
 3165TIP3    H126067   0.846   2.659   9.274 -1.8871 -0.8125  3.5061
 3165TIP3    H226068   0.850   2.808   9.302 -1.3203 -0.2676  0.8514
 3166TIP3   OH226069   3.982   6.291   0.972  0.0685 -0.2450 -0.2951
 3166TIP3    H126070   3.900   6.257   1.008  0.2437 -0.5149 -0.1442
 3166TIP3    H226071   3.955   6.357   0.909 -0.2202  0.7056  0.7981
 3167TIP3   OH226072   4.211   0.320   1.917 -0.0438  0.0904  0.1637
 3167TIP3    H126073   4.292   0.370   1.933 -0.0539  0.2318 -0.2167
 3167TIP3    H226074   4.157   0.378   1.864  0.6043 -0.9223 -1.6816
 3168TIP3   OH226075   6.106   5.398   1.317  0.1731 -0.5244  0.6068
 3168TIP3    H126076   6.101   5.306   1.343 -0.2730 -0.8251 -0.5083
 3168TIP3    H226077   6.198   5.413   1.300 -0.0445 -1.5616 -1.8913
 3169TIP3   OH226078   1.541   1.000   2.020 -0.4149  0.7312  0.5141
 3169TIP3    H126079   1.500   0.973   2.102 -0.2085 -1.3498 -0.0143
 3169TIP3    H226080   1.515   0.932   1.957  1.3148  1.0201 -0.5695
 3170TIP3   OH226081   5.857   4.459   1.899  0.0638  0.4343  0.4054
 3170TIP3    H126082   5.825   4.400   1.831 -0.5514  1.1271  0.0857
 3170TIP3    H226083   5.783   4.516   1.919  1.1862  2.3887 -0.6906
 3171TIP3   OH226084   0.615   1.992   1.464 -0.5094 -0.2954  0.3652
 3171TIP3    H126085   0.589   1.900   1.466 -0.2367 -0.4100 -0.6729
 3171TIP3    H226086   0.541   2.039   1.503 -1.5499 -0.7870 -0.9196
 3172TIP3   OH226087   5.192   2.325   7.662 -0.0144 -0.2351 -0.1427
 3172TIP3    H126088   5.231   2.251   7.708 -0.4952 -0.6375 -0.3755
 3172TIP3    H226089   5.173   2.389   7.731 -0.2346 -0.6150  0.1556
 3173TIP3   OH226090   1.346   2.310   7.358 -0.2153 -0.2499 -0.0807
 3173TIP3    H126091   1.397   2.377   7.313  0.6342 -2.2451 -2.3249
 3173TIP3    H226092   1.263   2.307   7.310 -1.1388  0.6165  1.3835
 3174TIP3   OH226093   1.600   1.787   7.106  0.6346  0.1058 -0.1048
 3174TIP3    H126094   1.666   1.777   7.175  1.9732  1.1244 -1.1699
 3174TIP3    H226095   1.534   1.845   7.143  1.3151  0.6080  0.3421
 3175TIP3   OH226096   0.930   0.569   8.824  0.1953 -0.2046  0.0079
 3175TIP3    H126097   0.942   0.505   8.894  0.2762 -0.0302  0.1550
 3175TIP3    H226098   0.849   0.615   8.848  0.2560 -0.1032  0.0209
 3176TIP3   OH226099   6.292   2.416   6.151 -0.0900  0.4347  0.0574
 3176TIP3    H126100   6.264   2.337   6.197 -0.9093  0.5157 -0.2685
 3176TIP3    H226101   6.387   2.408   6.142 -0.0209  0.0700  1.0873
 3177TIP3   OH226102   3.975   0.069   8.176 -0.2404 -0.1385  0.6401
 3177TIP3    H126103   3.921   0.135   8.131 -1.9698 -2.1723 -0.4556
 3177TIP3    H226104   3.974   0.096   8.268 -2.2158  0.5330  0.4679
 3178TIP3   OH226105   3.141   0.800   0.660  0.0547 -0.3362 -0.3321
 3178TIP3    H126106   3.147   0.710   0.692  3.9452 -1.0052 -2.3432
 3178TIP3    H226107   3.171   0.854   0.733 -0.7412 -0.7889  0.3442
 3179TIP3   OH226108   5.832   3.309   8.841  0.4354 -0.1229  0.0554
 3179TIP3    H126109   5.858   3.270   8.925 -2.1666  0.6485  1.3367
 3179TIP3    H226110   5.844   3.403   8.854 -0.9186  0.0762 -0.0464
 3180TIP3   OH226111   5.336   2.146   8.378 -0.0291 -0.3514 -0.1677
 3180TIP3    H126112   5.315   2.055   8.399 -0.2997 -0.2765 -0.1150
 3180TIP3    H226113   5.275   2.169   8.309  1.0186 -0.6754 -1.2391
 3181TIP3   OH226114   4.688   6.289   8.512 -0.2751 -0.1109  0.0260
 3181TIP3    H126115   4.660   6.219   8.571  0.4228  1.2609  2.0693
 3181TIP3    H226116   4.606   6.329   8.483 -0.6148 -0.4044  0.5553
 3182TIP3   OH226117   2.545   2.219   2.643  0.5086  0.2195 -0.5538
 3182TIP3    H126118   2.482   2.281   2.605  0.0657  0.2537  0.2165
 3182TIP3    H226119   2.567   2.257   2.728  1.1678 -0.0675 -0.5895
 3183TIP3   OH226120   2.729   0.512   2.562  0.1697  0.0276 -0.1128
 3183TIP3    H126121   2.675   0.449   2.514 -0.7943 -0.3232  1.3834
 3183TIP3    H226122   2.819   0.484   2.545 -0.1609 -0.4300 -1.2137
 3184TIP3   OH226123   5.891   2.149   1.058 -0.0404 -0.4045  0.9048
 3184TIP3    H126124   5.950   2.206   1.107  2.5054 -0.9137 -1.3351
 3184TIP3    H226125   5.860   2.203   0.985 -0.1384 -0.9663  0.5247
 3185TIP3   OH226126   0.148   2.824   6.322  0.3376  0.3333 -0.0920
 3185TIP3    H126127   0.223   2.876   6.294  1.1376 -1.0322 -0.6320
 3185TIP3    H226128   0.158   2.742   6.274 -0.6128 -0.4903  1.0637
 3186TIP3   OH226129   3.729   1.275   2.364 -0.5655  0.1105  0.0721
 3186TIP3    H126130   3.719   1.366   2.336 -0.8961  0.4166  1.1577
 3186TIP3    H226131   3.724   1.224   2.282  0.4529  1.1092 -0.6478
 3187TIP3   OH226132   1.413   1.487   7.412 -0.6274  0.0466 -0.1972
 3187TIP3    H126133   1.321   1.512   7.401 -1.0368 -0.3551  1.8815
 3187TIP3    H226134   1.413   1.392   7.402 -0.1126  0.2065 -1.9432
 3188TIP3   OH226135   0.331   5.621   0.388 -0.3037  0.2137  0.5572
 3188TIP3    H126136   0.292   5.552   0.336 -2.7279  0.8606  1.3939
 3188TIP3    H226137   0.318   5.701   0.337  0.6805  0.3612  0.5050
 3189TIP3   OH226138   5.325   5.813   2.399  0.2131 -0.3682  0.0938
 3189TIP3    H126139   5.364   5.890   2.358  1.0660 -2.4428 -3.3470
 3189TIP3    H226140   5.231   5.822   2.384  0.3818 -0.3428 -1.0456
 3190TIP3   OH226141   0.375   2.634   1.475 -0.2769 -0.1745  0.7540
 3190TIP3    H126142   0.338   2.550   1.501  1.8284 -0.8253  1.9267
 3190TIP3    H226143   0.467   2.629   1.501  0.5233  1.5675 -1.3995
 3191TIP3   OH226144   1.832   2.864   6.710  0.2833  0.0708  0.0051
 3191TIP3    H126145   1.851   2.892   6.621 -0.0742  1.1376  0.2450
 3191TIP3    H226146   1.885   2.922   6.766 -0.7431  0.5601  0.5251
 3192TIP3   OH226147   5.109   2.954   1.991 -0.2830 -0.3172 -0.3737
 3192TIP3    H126148   5.201   2.958   1.968 -0.0640  0.9808  0.6389
 3192TIP3    H226149   5.064   2.999   1.919  0.0778  0.7643  0.0579
 3193TIP3   OH226150   3.568   1.181   7.527 -0.0183 -0.4443 -0.0338
 3193TIP3    H126151   3.486   1.190   7.478  0.3693 -1.6258 -0.9340
 3193TIP3    H226152   3.636   1.178   7.460  0.9549  1.9437  0.7519
 3194TIP3   OH226153   1.833   4.793   9.130  0.1000  0.0673 -0.2021
 3194TIP3    H126154   1.743   4.761   9.135  0.5749 -1.1758  1.9662
 3194TIP3    H226155   1.828   4.884   9.162 -0.6705  0.8690 -2.4391
 3195TIP3   OH226156   5.942   1.975   1.974 -0.4954 -0.6736 -0.1268
 3195TIP3    H126157   5.865   2.011   1.929 -0.3186  1.2028  0.9491
 3195TIP3    H226158   5.984   1.919   1.909 -1.6289 -0.0613 -1.4381
 3196TIP3   OH226159   2.165   5.575   1.698 -0.2031  0.4428 -0.1139
 3196TIP3    H126160   2.120   5.504   1.652 -1.3041  0.6095  0.6786
 3196TIP3    H226161   2.202   5.629   1.627  0.5642 -0.8336 -0.7225
 3197TIP3   OH226162   3.553   5.769   0.115 -0.0444 -0.4547  0.0596
 3197TIP3    H126163   3.525   5.810   0.198  0.7145 -0.5798  0.3832
 3197TIP3    H226164   3.647   5.783   0.112 -0.1939  0.3869 -1.2609
 3198TIP3   OH226165   6.154   5.973   7.212 -0.1594 -0.0575 -0.1548
 3198TIP3    H126166   6.066   6.011   7.211  0.1103  0.5668 -1.3223
 3198TIP3    H226167   6.211   6.045   7.186  1.0533  0.3128  3.0335
 3199TIP3   OH226168   4.669   6.060   1.615  0.1168  0.2396  0.3726
 3199TIP3    H126169   4.764   6.071   1.626  0.1695  1.5058 -1.0536
 3199TIP3    H226170   4.660   6.007   1.536 -0.3758  0.6934  0.1226
 3200TIP3   OH226171   5.496   4.968   2.163  0.3754  0.3526  0.2187
 3200TIP3    H126172   5.433   4.987   2.233  0.4192  0.0599  0.3394
 3200TIP3    H226173   5.552   4.900   2.200  1.3146  1.2331  0.4392
 3201TIP3   OH226174   2.978   5.503   2.074 -0.2102  0.0127  0.4715
 3201TIP3    H126175   3.042   5.563   2.112  0.0182 -0.9768  1.7160
 3201TIP3    H226176   2.991   5.510   1.980 -1.3320  3.1508  0.4413
 3202TIP3   OH226177   3.775   5.512   1.786  0.5169  0.2879  0.5284
 3202TIP3    H126178   3.854   5.495   1.837  0.9667 -0.3120 -0.3380
 3202TIP3    H226179   3.796   5.591   1.736 -0.2810  1.4571  1.9421
 3203TIP3   OH226180   0.041   2.885   9.246  0.1874 -0.0139 -0.0348
 3203TIP3    H126181  -0.033   2.830   9.222  0.6686 -0.8166  0.2733
 3203TIP3    H226182   0.008   2.939   9.318  0.0159 -0.6625  0.3855
 3204TIP3   OH226183   5.279   3.549   3.056  0.8318  0.6377  0.3390
 3204TIP3    H126184   5.292   3.478   3.119 -0.2690 -1.6838 -1.8905
 3204TIP3    H226185   5.185   3.547   3.036  1.2828  0.6075 -2.0920
 3205TIP3   OH226186   5.352   1.126   2.158 -0.3804  0.5471  0.6300
 3205TIP3    H126187   5.348   1.198   2.096 -1.2502  0.3399  0.4429
 3205TIP3    H226188   5.399   1.162   2.234  0.9549  0.7169 -0.2359
 3206TIP3   OH226189   1.617   5.064   1.005 -0.3925 -0.0218  0.8888
 3206TIP3    H126190   1.608   4.982   1.054  0.8782 -1.0746 -0.5394
 3206TIP3    H226191   1.529   5.101   1.004 -1.0493 -1.4688  1.4080
 3207TIP3   OH226192   4.625   5.201   9.236 -0.1401 -0.3636  0.3636
 3207TIP3    H126193   4.591   5.125   9.187 -0.7303 -0.1182  0.3813
 3207TIP3    H226194   4.700   5.230   9.184  0.0383 -0.9075  0.3087
 3208TIP3   OH226195   4.817   4.057   2.802 -0.1365  0.2701  0.5252
 3208TIP3    H126196   4.783   4.102   2.880 -0.8553 -0.6662  0.7673
 3208TIP3    H226197   4.763   4.090   2.730 -1.6855 -1.2543  0.9165
 3209TIP3   OH226198   3.199   3.156   1.663  0.2954 -0.0067 -0.5494
 3209TIP3    H126199   3.112   3.116   1.667  0.3222 -0.0935  2.9020
 3209TIP3    H226200   3.189   3.238   1.711  1.9485  0.3378 -0.7397
 3210TIP3   OH226201   2.361   0.719   2.585 -0.6515  0.4932  0.9586
 3210TIP3    H126202   2.438   0.750   2.632  0.9392 -1.9404  0.0911
 3210TIP3    H226203   2.291   0.779   2.613  0.4932  0.1353  5.2457
 3211TIP3   OH226204   1.960   2.902   8.876 -0.8029 -0.1102 -0.6207
 3211TIP3    H126205   2.033   2.840   8.875 -0.4932  0.2544 -1.3202
 3211TIP3    H226206   1.941   2.918   8.784  0.1045  1.9513 -0.5055
 3212TIP3   OH226207   0.171   3.828   0.104 -0.1152  0.0455  0.7074
 3212TIP3    H126208   0.075   3.823   0.100 -0.0664 -0.3544 -1.1452
 3212TIP3    H226209   0.189   3.869   0.188 -2.0248  2.3916  0.0934
 3213TIP3   OH226210   3.935   4.877   0.755 -0.2051  0.0896  0.1902
 3213TIP3    H126211   3.919   4.888   0.849  1.3817 -1.5483  0.7158
 3213TIP3    H226212   3.849   4.857   0.719 -0.5020 -2.0304  1.8087
 3214TIP3   OH226213   1.292  -0.011   2.823  0.2027 -0.2256  0.0480
 3214TIP3    H126214   1.210   0.019   2.863  0.2767 -1.6144  1.3508
 3214TIP3    H226215   1.358   0.005   2.890  0.4616 -1.8876  0.2370
 3215TIP3   OH226216   0.652   6.313   0.259 -0.0563 -0.4158  0.0083
 3215TIP3    H126217   0.701   6.344   0.182  3.0801 -1.0838  1.5529
 3215TIP3    H226218   0.655   6.217   0.252 -0.3564 -0.4728  0.5934
 3216TIP3   OH226219   6.030   0.390   0.819 -0.2456 -0.3065  0.2208
 3216TIP3    H126220   6.070   0.345   0.894 -0.9078 -1.3668 -0.0406
 3216TIP3    H226221   6.034   0.327   0.748 -3.2419 -0.9023  0.4410
 3217TIP3   OH226222   2.954   0.465   8.417 -0.4128 -0.1524 -0.7746
 3217TIP3    H126223   3.042   0.486   8.385 -0.4870 -0.2508 -1.0447
 3217TIP3    H226224   2.922   0.548   8.454 -0.8175  0.3123 -2.1002
 3218TIP3   OH226225   1.925   0.652   7.624  0.2007 -0.6396  0.1843
 3218TIP3    H126226   1.952   0.706   7.698  1.3836  1.5735 -1.7287
 3218TIP3    H226227   1.971   0.569   7.637  1.1354  0.0390  1.4249
 3219TIP3   OH226228   6.031   5.259   7.549 -0.0389  0.4658 -0.1285
 3219TIP3    H126229   6.023   5.184   7.607 -1.8676 -0.0965 -1.0033
 3219TIP3    H226230   6.108   5.306   7.579 -0.6005 -0.0981  2.3714
 3220TIP3   OH226231   1.409   3.182   6.589  0.3433 -0.1048 -0.2337
 3220TIP3    H126232   1.470   3.142   6.651 -0.5959  0.8342  1.3888
 3220TIP3    H226233   1.419   3.276   6.603 -0.3752  0.1060 -1.0437
 3221TIP3   OH226234   6.274   5.049   8.967  0.0307  0.5406 -0.6962
 3221TIP3    H126235   6.245   5.104   8.894 -0.5169  0.5693 -0.4637
 3221TIP3    H226236   6.306   5.111   9.033 -0.1414  0.5570 -0.6272
 3222TIP3   OH226237   2.554   5.523   1.111  0.7395  0.0795  0.3299
 3222TIP3    H126238   2.502   5.443   1.120  1.6963 -0.9414 -2.3325
 3222TIP3    H226239   2.639   5.493   1.078  1.3989  2.1355  0.0280
 3223TIP3   OH226240   2.758   3.255   0.786 -0.0675 -0.6151  0.1842
 3223TIP3    H126241   2.685   3.224   0.840  0.6413  1.2377  2.3292
 3223TIP3    H226242   2.821   3.290   0.848  1.7189 -0.2052 -1.7564
 3224TIP3   OH226243   2.616   4.250   0.059  0.3007  0.6844 -0.6460
 3224TIP3    H126244   2.659   4.167   0.038  0.5296  0.6674 -0.1195
 3224TIP3    H226245   2.533   4.224   0.098  1.7396  0.5790  2.6626
 3225TIP3   OH226246   5.227   3.775   1.680 -0.5885 -0.2046 -0.1763
 3225TIP3    H126247   5.230   3.868   1.657 -1.7698  0.3092  1.5917
 3225TIP3    H226248   5.199   3.732   1.599 -0.3995  1.0108 -0.9232
 3226TIP3   OH226249   3.926   3.402   1.394  0.1967  0.1654 -0.0609
 3226TIP3    H126250   3.933   3.395   1.298 -0.3278 -0.2613 -0.0738
 3226TIP3    H226251   3.947   3.314   1.426 -2.2128 -0.4608  0.0431
 3227TIP3   OH226252   1.223   0.737   9.376  0.2503 -0.2142  0.2519
 3227TIP3    H126253   1.245   0.752   9.284 -3.5442 -0.3203 -0.8439
 3227TIP3    H226254   1.220   0.642   9.385 -3.2793 -0.3369 -0.7951
 3228TIP3   OH226255   2.550   2.000   1.028  0.5985  0.1505 -0.1284
 3228TIP3    H126256   2.634   1.986   0.984  0.9506  0.0069  0.5668
 3228TIP3    H226257   2.517   2.082   0.990  1.1595  0.3280 -0.2536
 3229TIP3   OH226258   6.271   3.333   6.560  0.6363 -0.1200  0.0510
 3229TIP3    H126259   6.245   3.381   6.638  0.8277 -1.2041  0.8006
 3229TIP3    H226260   6.225   3.249   6.567 -0.2909  0.2045 -1.6051
 3230TIP3   OH226261   5.510   1.473   9.099  0.1057 -0.2310 -0.0989
 3230TIP3    H126262   5.575   1.540   9.122 -0.3547  0.0691  0.3298
 3230TIP3    H226263   5.447   1.475   9.170 -0.2182 -0.7288 -0.3708
 3231TIP3   OH226264   1.726   0.627   6.736  0.2675  0.1190 -0.4226
 3231TIP3    H126265   1.634   0.653   6.728 -0.1019 -0.9537  0.0469
 3231TIP3    H226266   1.735   0.599   6.827  0.5350 -1.6281 -0.9494
 3232TIP3   OH226267   0.707   3.622   8.349  0.1842 -0.1944  0.5486
 3232TIP3    H126268   0.697   3.652   8.259 -2.1041 -2.6867 -0.1729
 3232TIP3    H226269   0.762   3.688   8.391  1.2443  1.1077 -2.6127
 3233TIP3   OH226270   0.580   0.042   6.689  1.0169 -0.6133 -0.3041
 3233TIP3    H126271   0.654   0.064   6.633  0.8989 -0.7354 -0.5094
 3233TIP3    H226272   0.544  -0.038   6.651  0.6954 -0.4765 -0.2883
 3234TIP3   OH226273   2.141   2.750   0.314 -0.3663  0.2905  0.0462
 3234TIP3    H126274   2.083   2.712   0.249  0.8437  0.7112 -1.3300
 3234TIP3    H226275   2.084   2.771   0.388 -1.3342 -2.7002  0.2565
 3235TIP3   OH226276   1.861   4.406   7.295 -0.2552  0.2369 -0.1359
 3235TIP3    H126277   1.933   4.373   7.241  0.9092  1.3724  0.6644
 3235TIP3    H226278   1.800   4.445   7.233 -0.5309 -1.3100 -0.8845
 3236TIP3   OH226279   5.614   2.811   0.081  0.1524  0.1521  0.0993
 3236TIP3    H126280   5.560   2.749   0.032 -1.4488  0.1593  1.7695
 3236TIP3    H226281   5.552   2.861   0.133  1.6967  0.9657  1.2284
 3237TIP3   OH226282   3.989   5.667   1.320 -0.4451 -0.3933 -0.4258
 3237TIP3    H126283   4.035   5.587   1.344  0.8070  0.3144 -0.4159
 3237TIP3    H226284   4.041   5.705   1.249 -1.5678 -0.0853 -1.1198
 3238TIP3   OH226285   1.869   2.235   7.270  0.0298 -0.1591 -0.4803
 3238TIP3    H126286   1.908   2.157   7.309  0.6018  0.5495  0.4299
 3238TIP3    H226287   1.775   2.217   7.268  0.0688 -0.5487  0.5113
 3239TIP3   OH226288   1.468   1.965   8.897  0.2578  0.0242 -0.8207
 3239TIP3    H126289   1.472   2.005   8.984 -0.8963 -0.9012 -0.3245
 3239TIP3    H226290   1.540   2.006   8.849  2.1084 -0.7649  1.1294
 3240TIP3   OH226291   6.223   1.931   8.880 -0.5435 -0.8149 -0.3109
 3240TIP3    H126292   6.206   1.838   8.895  2.6955 -1.2287  2.1355
 3240TIP3    H226293   6.259   1.962   8.963 -2.0008  2.8313 -0.8606
 3241TIP3   OH226294   0.894   6.344   8.361  0.3820  0.1991  0.2756
 3241TIP3    H126295   0.945   6.263   8.359  0.6112  0.2999  1.3363
 3241TIP3    H226296   0.803   6.315   8.348  0.6937  0.0331 -1.7627
 3242TIP3   OH226297   6.175   2.721   8.689  0.2385 -0.7648 -0.2820
 3242TIP3    H126298   6.242   2.788   8.678  0.6542 -1.4839 -2.7769
 3242TIP3    H226299   6.210   2.645   8.643 -1.5227 -1.7309 -0.0982
 3243TIP3   OH226300   3.690   0.246   0.282  0.0925 -0.3364 -0.0736
 3243TIP3    H126301   3.765   0.294   0.248  0.8099 -1.9815 -0.9253
 3243TIP3    H226302   3.618   0.309   0.281  1.1028  0.8298 -0.6920
 3244TIP3   OH226303   2.199   4.797   0.395  0.1307  0.4062  0.5070
 3244TIP3    H126304   2.290   4.781   0.372  0.2375  1.6271 -0.0069
 3244TIP3    H226305   2.197   4.797   0.491  0.3607 -1.1821  0.5236
 3245TIP3   OH226306   1.920   6.184   2.223 -0.3032  0.4163 -0.9621
 3245TIP3    H126307   1.885   6.166   2.136  0.3660 -1.3490 -0.9025
 3245TIP3    H226308   2.013   6.164   2.216 -0.1418  0.7617  0.0373
 3246TIP3   OH226309   0.556   0.613   0.352  0.4515 -0.1423  0.2139
 3246TIP3    H126310   0.602   0.638   0.432  1.5867 -0.9974 -0.1438
 3246TIP3    H226311   0.592   0.670   0.285  0.3676 -0.2360  0.0894
 3247TIP3   OH226312   5.180   5.626   8.028  0.1495  0.0690 -0.1270
 3247TIP3    H126313   5.222   5.688   8.088  0.4836  2.5884 -2.7442
 3247TIP3    H226314   5.249   5.603   7.966 -0.4413 -1.6233 -0.1894
 3248TIP3   OH226315   6.005   6.277   1.946 -0.8629 -0.1203 -0.4029
 3248TIP3    H126316   6.006   6.237   1.859  2.2923  0.0291 -0.5648
 3248TIP3    H226317   5.972   6.365   1.931 -0.7536 -0.2333 -1.3940
 3249TIP3   OH226318   4.756   0.106   0.685 -0.2447  0.8368 -0.7220
 3249TIP3    H126319   4.765   0.058   0.767 -0.4985  2.3711  0.2481
 3249TIP3    H226320   4.713   0.045   0.626  0.7336 -0.6073 -0.0103
 3250TIP3   OH226321   1.313   5.046   2.693 -0.3478 -0.2263 -0.1034
 3250TIP3    H126322   1.373   4.981   2.730  0.6307  0.8332  0.2398
 3250TIP3    H226323   1.267   5.082   2.769 -2.0511 -1.5754 -0.4252
 3251TIP3   OH226324   4.992   2.824   8.085 -0.5718  0.1168  0.4700
 3251TIP3    H126325   5.029   2.740   8.111  0.8906  0.6290  0.1661
 3251TIP3    H226326   5.040   2.847   8.005 -1.6977  0.7469 -0.0462
 3252TIP3   OH226327   4.866   5.625   8.819 -0.2273  0.3385  0.2174
 3252TIP3    H126328   4.904   5.711   8.840 -0.1678  0.4293 -0.2487
 3252TIP3    H226329   4.913   5.596   8.741  0.4288 -0.5651  0.9374
 3253TIP3   OH226330   2.027   0.096   1.108  0.3809  0.5081  0.0632
 3253TIP3    H126331   2.019   0.044   1.188 -0.7477  1.0701  0.3299
 3253TIP3    H226332   1.942   0.138   1.098  0.8737  1.3205 -0.8335
 3254TIP3   OH226333   0.373   4.197   1.126  0.6932  0.1243  0.1148
 3254TIP3    H126334   0.358   4.243   1.208 -0.4528 -0.9114  0.5088
 3254TIP3    H226335   0.409   4.264   1.067 -0.2792  1.3489  0.8695
 3255TIP3   OH226336   5.623   3.042   8.483  0.8963  0.4094  0.4968
 3255TIP3    H126337   5.687   2.979   8.449 -1.7528 -1.4888 -1.3659
 3255TIP3    H226338   5.645   3.050   8.576  3.5870 -0.3987  0.0239
 3256TIP3   OH226339   4.727   2.884   8.978 -0.0695 -0.8955 -0.1344
 3256TIP3    H126340   4.683   2.886   8.893 -0.0122  0.2983 -0.1536
 3256TIP3    H226341   4.718   2.793   9.007 -0.1751 -1.3040 -1.3592
 3257TIP3   OH226342   2.601   0.867   5.835 -0.4661 -0.0476  0.1229
 3257TIP3    H126343   2.531   0.857   5.899  0.2599 -0.2281  0.9153
 3257TIP3    H226344   2.558   0.898   5.756 -1.3536  0.4314  0.7802
 3258TIP3   OH226345   3.853   1.523   0.282  0.5617  0.5268  0.1149
 3258TIP3    H126346   3.897   1.525   0.198 -0.5860  3.5819 -0.5487
 3258TIP3    H226347   3.905   1.464   0.336  2.0059 -0.5670 -2.3563
 3259TIP3   OH226348   0.868   0.026   8.066  0.0656  0.3684 -0.2733
 3259TIP3    H126349   0.878   0.000   8.157  1.5266  1.1340 -0.1882
 3259TIP3    H226350   0.940  -0.016   8.020 -0.4251  0.3034 -1.0171
 3260TIP3   OH226351   2.377   1.240   7.104  0.5865 -0.0887 -0.5054
 3260TIP3    H126352   2.440   1.195   7.047 -1.2400 -1.2095 -1.7653
 3260TIP3    H226353   2.394   1.205   7.191  1.4840 -0.6049 -0.8754
 3261TIP3   OH226354   2.485   5.196   2.303  0.2763  0.0179 -0.8805
 3261TIP3    H126355   2.403   5.159   2.334  0.3462 -1.4219 -2.2790
 3261TIP3    H226356   2.519   5.246   2.377  0.4105 -3.1320  1.3845
 3262TIP3   OH226357   0.420   0.101   0.200 -0.4162 -0.3531  0.2294
 3262TIP3    H126358   0.500   0.086   0.251  0.3193  1.6223 -0.2204
 3262TIP3    H226359   0.404   0.019   0.155  0.7564 -1.1355  1.1712
 3263TIP3   OH226360   1.914   0.867   8.629  0.0978  0.5090  0.0794
 3263TIP3    H126361   1.997   0.886   8.672 -0.5024  1.4689  0.8391
 3263TIP3    H226362   1.895   0.946   8.578 -1.1053  0.9409  1.1534
 3264TIP3   OH226363   5.848   5.339   2.912  0.2810 -0.3786  0.0449
 3264TIP3    H126364   5.758   5.368   2.893  0.2989  0.0668  0.6143
 3264TIP3    H226365   5.903   5.404   2.870  0.3717 -1.3925 -1.4794
 3265TIP3   OH226366   5.487   2.525   2.829 -0.6079 -0.1959  0.2114
 3265TIP3    H126367   5.417   2.509   2.767 -1.0911  0.7245  0.4976
 3265TIP3    H226368   5.533   2.442   2.836 -0.4245 -0.2805 -1.5202
 3266TIP3   OH226369   5.523   4.131   2.571  0.0673 -0.4452  0.5492
 3266TIP3    H126370   5.593   4.175   2.523 -0.6045 -0.6907 -0.6822
 3266TIP3    H226371   5.559   4.120   2.660  0.5773  1.8221  0.7010
 3267TIP3   OH226372   1.510   2.670   9.137  0.0201  0.8180 -0.0129
 3267TIP3    H126373   1.451   2.700   9.068  0.3106  0.4706 -0.4205
 3267TIP3    H226374   1.578   2.738   9.140 -0.5872  1.4115  0.7171
 3268TIP3   OH226375   3.302   1.609   8.261  0.7823 -0.3080  0.0398
 3268TIP3    H126376   3.246   1.641   8.190 -0.1672 -0.4785  0.6977
 3268TIP3    H226377   3.254   1.629   8.341  2.3167  0.8443  0.7220
 3269TIP3   OH226378   0.256   0.357   7.816  0.1681 -0.3047 -0.6170
 3269TIP3    H126379   0.174   0.406   7.810 -1.0124 -2.0923 -0.0282
 3269TIP3    H226380   0.283   0.346   7.725 -0.3649  0.1263 -0.8376
 3270TIP3   OH226381   5.142   3.022   7.040 -0.4835 -0.1332  0.1788
 3270TIP3    H126382   5.096   3.032   6.957 -1.9680  0.0161  0.9860
 3270TIP3    H226383   5.139   2.928   7.058 -0.8729 -0.0714  0.4456
 3271TIP3   OH226384   4.224   5.401   2.346 -0.1151 -0.0342 -0.3021
 3271TIP3    H126385   4.265   5.346   2.412  1.6492 -0.4591 -1.6738
 3271TIP3    H226386   4.296   5.428   2.288 -1.5895  0.1591 -2.1488
 3272TIP3   OH226387   2.549   0.908   8.040 -0.1836  0.2283  0.1625
 3272TIP3    H126388   2.604   0.949   7.973 -0.0312 -0.8114 -0.3649
 3272TIP3    H226389   2.460   0.932   8.017 -0.2826 -1.4532 -1.4039
 3273TIP3   OH226390   5.255   5.460   0.717 -0.3196 -0.0224  0.0318
 3273TIP3    H126391   5.161   5.451   0.729 -0.7369  2.2470 -1.0475
 3273TIP3    H226392   5.293   5.399   0.780 -2.4888  0.7786  2.2943
 3274TIP3   OH226393   5.454   4.095   7.519 -0.1913 -0.2667  0.1155
 3274TIP3    H126394   5.400   4.017   7.511 -1.4968  0.5639  0.4724
 3274TIP3    H226395   5.400   4.166   7.483  0.9853  0.4664 -0.2696
 3275TIP3   OH226396   3.788   0.892   8.923 -0.2464  0.2925 -0.2977
 3275TIP3    H126397   3.844   0.876   8.847 -0.1888  0.0541 -0.2039
 3275TIP3    H226398   3.707   0.927   8.887 -0.1797  0.2750 -0.4613
 3276TIP3   OH226399   1.842   5.206   8.382  0.1844  0.4024 -0.5319
 3276TIP3    H126400   1.875   5.140   8.320 -0.6199  0.0473 -0.6050
 3276TIP3    H226401   1.879   5.288   8.352 -0.2549  0.2456 -1.5579
 3277TIP3   OH226402   0.865   6.102   1.390 -0.5407  0.0107 -0.0948
 3277TIP3    H126403   0.905   6.156   1.459 -1.2969  0.3873  0.0663
 3277TIP3    H226404   0.933   6.094   1.323 -0.5351  1.5429 -0.3226
 3278TIP3   OH226405   1.686   1.092   0.358  0.3291 -0.0924 -0.2350
 3278TIP3    H126406   1.725   1.036   0.291  0.2917  0.5075 -0.7763
 3278TIP3    H226407   1.691   1.041   0.439  0.8001 -0.6462 -0.6049
 3279TIP3   OH226408   2.436   5.681   9.430  0.1175  0.1723 -0.0705
 3279TIP3    H126409   2.458   5.705   9.340  0.7021  1.7369  0.4467
 3279TIP3    H226410   2.518   5.648   9.467  0.0186  0.0550  0.0442
 3280TIP3   OH226411   2.355   0.347   3.714  0.0916  0.0147  0.5907
 3280TIP3    H126412   2.447   0.342   3.690  0.3249 -0.4700  1.5068
 3280TIP3    H226413   2.315   0.402   3.648  1.0424  0.2304  0.1840
 3281TIP3   OH226414   6.119   6.010   0.795 -0.7750  0.7119  0.0494
 3281TIP3    H126415   6.203   5.981   0.829 -0.8130  1.6196  0.9700
 3281TIP3    H226416   6.084   6.067   0.864 -1.3897  1.6796 -1.0341
 3282TIP3   OH226417   0.779   4.359   2.977 -0.2483  0.4676  0.1267
 3282TIP3    H126418   0.764   4.449   3.007 -0.7453 -0.1610  1.8598
 3282TIP3    H226419   0.870   4.341   2.997 -0.0854  0.6450 -0.4305
 3283TIP3   OH226420   5.229   5.227   1.012  0.1785 -0.7264  0.7761
 3283TIP3    H126421   5.286   5.205   0.938 -1.0721  0.2942 -0.5398
 3283TIP3    H226422   5.290   5.250   1.083  1.4083 -0.5809 -0.2941
 3284TIP3   OH226423   5.357   4.975   2.410  0.6313  0.0632  0.3662
 3284TIP3    H126424   5.310   4.948   2.489 -0.3498 -0.5141 -0.3957
 3284TIP3    H226425   5.438   5.014   2.443  0.6831 -1.0245  1.6192
 3285TIP3   OH226426   2.655   0.895   3.100 -0.0737  0.2256  0.4112
 3285TIP3    H126427   2.655   0.969   3.040  0.7682  0.7442  1.0297
 3285TIP3    H226428   2.651   0.818   3.042  0.7324  0.7115 -0.3307
 3286TIP3   OH226429   4.508   1.469   7.533  0.6459  0.1552  0.2550
 3286TIP3    H126430   4.440   1.402   7.539  1.2619 -0.6370 -1.1698
 3286TIP3    H226431   4.551   1.467   7.618  1.1872 -1.8667 -0.0179
 3287TIP3   OH226432   1.601   4.894   6.541 -0.0891 -0.5375 -0.3238
 3287TIP3    H126433   1.547   4.815   6.548 -0.0543 -0.5281  0.0397
 3287TIP3    H226434   1.673   4.879   6.603  0.1056 -0.3722 -0.5102
 3288TIP3   OH226435   5.002   5.572   0.488 -0.2128 -0.0092 -0.3219
 3288TIP3    H126436   5.033   5.583   0.398 -4.0844  0.8788 -1.7035
 3288TIP3    H226437   4.971   5.658   0.514 -0.4098 -0.5578  1.3933
 3289TIP3   OH226438   4.768   6.301   1.438  0.4530 -0.2193 -0.6943
 3289TIP3    H126439   4.693   6.265   1.389 -1.6602  1.3195  1.2203
 3289TIP3    H226440   4.775   6.245   1.515 -1.5964  2.0868  1.3056
 3290TIP3   OH226441   5.732   3.753   2.119 -0.1174  0.1953 -0.4921
 3290TIP3    H126442   5.801   3.790   2.064 -0.7936  1.8157 -0.3299
 3290TIP3    H226443   5.651   3.776   2.073 -0.6034 -3.1443 -1.5976
 3291TIP3   OH226444   6.309   3.695   2.566 -0.1250  0.2560  0.2374
 3291TIP3    H126445   6.279   3.650   2.487  1.3687  0.9670 -0.7705
 3291TIP3    H226446   6.263   3.779   2.565 -0.0334  0.3042  0.0719
 3292TIP3   OH226447   5.119   4.878   0.304 -0.1796  0.1720 -0.2432
 3292TIP3    H126448   5.145   4.966   0.329  0.6491 -0.4662  1.2675
 3292TIP3    H226449   5.023   4.881   0.299 -0.0977  1.5772 -2.0119
 3293TIP3   OH226450   6.226   5.324   8.865  0.1066  0.7976  0.2949
 3293TIP3    H126451   6.204   5.363   8.780  0.2699  0.5475  0.1377
 3293TIP3    H226452   6.216   5.396   8.927  0.0478  0.9996  0.0548
 3294TIP3   OH226453   5.310   2.150   8.732  0.0164  0.4492  0.0097
 3294TIP3    H126454   5.230   2.128   8.781  0.1538 -0.5451 -0.1915
 3294TIP3    H226455   5.279   2.193   8.652 -0.3957 -0.9433 -0.6051
 3295TIP3   OH226456   0.396   0.772   1.607 -0.0139 -0.5464  0.0060
 3295TIP3    H126457   0.430   0.682   1.611  2.3102  0.1817 -1.4318
 3295TIP3    H226458   0.456   0.823   1.661  0.4477  0.5721 -1.4917
 3296TIP3   OH226459   5.761   5.136   8.602 -0.2725 -0.2358  0.1752
 3296TIP3    H126460   5.677   5.176   8.579 -1.4908 -2.2103  0.9735
 3296TIP3    H226461   5.749   5.043   8.583  1.2862 -0.7526  1.5422
 3297TIP3   OH226462   3.363   3.991   2.283 -0.3676 -0.2899 -0.3206
 3297TIP3    H126463   3.351   3.897   2.269 -0.2514  0.0209 -3.1409
 3297TIP3    H226464   3.346   4.004   2.377 -0.3493 -3.0933  0.1529
 3298TIP3   OH226465   2.705   4.759   0.937 -0.5706 -0.1785  0.1269
 3298TIP3    H126466   2.700   4.842   0.985 -0.3821  0.4487 -0.9070
 3298TIP3    H226467   2.712   4.785   0.845 -0.9537 -1.3507 -0.2503
 3299TIP3   OH226468   5.906   4.363   1.577  0.1792 -0.0305 -0.1826
 3299TIP3    H126469   5.878   4.273   1.557 -1.1336 -0.1791  1.9667
 3299TIP3    H226470   5.988   4.351   1.625 -0.8134 -0.2466  1.5336
 3300TIP3   OH226471   6.115   0.971   7.290 -0.1258 -0.1745 -0.4841
 3300TIP3    H126472   6.118   0.997   7.198 -1.1501  0.2792 -0.4072
 3300TIP3    H226473   6.167   1.037   7.335  1.2657 -0.9870 -0.8389
 3301TIP3   OH226474   0.893   1.458   7.035  0.3739  0.3241  0.4300
 3301TIP3    H126475   0.865   1.379   7.081  0.5835 -1.4085 -2.1991
 3301TIP3    H226476   0.812   1.497   7.002  0.3536  0.6502  0.8566
 3302TIP3   OH226477   3.205   6.270   3.127 -0.3331 -0.3613  0.4047
 3302TIP3    H126478   3.211   6.291   3.034 -1.8737 -0.0920  0.3392
 3302TIP3    H226479   3.193   6.355   3.170  0.3247 -0.4875  0.8402
 3303TIP3   OH226480   3.326   1.221   6.123 -0.4194 -0.2302  0.0260
 3303TIP3    H126481   3.273   1.202   6.200 -1.0283  1.3943  0.0557
 3303TIP3    H226482   3.389   1.287   6.154 -0.1769 -0.1241 -0.6786
 3304TIP3   OH226483   0.460   0.303   0.500 -0.2430  0.1534  0.2736
 3304TIP3    H126484   0.402   0.342   0.434  2.1553  1.3547 -1.2449
 3304TIP3    H226485   0.544   0.292   0.456  0.2163 -3.7132  1.6657
 3305TIP3   OH226486   1.146   0.350   8.492 -0.3821 -0.6119 -0.1698
 3305TIP3    H126487   1.195   0.374   8.570  0.5160 -0.7857 -0.6645
 3305TIP3    H226488   1.058   0.387   8.506  0.7550  2.6354 -0.6829
 3306TIP3   OH226489   3.059   1.967   0.391 -0.7369 -0.2880 -0.6112
 3306TIP3    H126490   3.025   2.044   0.437 -0.8718  0.2174 -1.5300
 3306TIP3    H226491   3.123   1.929   0.451  0.2962  1.2947 -0.6513
 3307TIP3   OH226492   1.779   4.051   2.724  0.2547  0.5533 -0.3110
 3307TIP3    H126493   1.860   4.070   2.772 -0.0442 -1.3214  1.0428
 3307TIP3    H226494   1.759   3.960   2.745 -0.5030 -0.0330 -3.2114
 3308TIP3   OH226495   4.897   1.936   1.529 -0.2896  0.5410  0.6034
 3308TIP3    H126496   4.861   1.889   1.605 -0.1763 -0.5045  0.0266
 3308TIP3    H226497   4.822   1.945   1.470  0.0052 -0.1487  0.1200
 3309TIP3   OH226498   5.089   5.815   1.175  0.7023 -0.4988 -0.0151
 3309TIP3    H126499   5.108   5.801   1.083 -1.1610  0.4132 -0.5915
 3309TIP3    H226500   5.102   5.909   1.188  2.3744 -0.8373  1.0422
 3310TIP3   OH226501   5.895   2.073   8.097  0.3970  0.4561  0.2909
 3310TIP3    H126502   5.828   2.011   8.068 -0.4130  1.4206  0.0545
 3310TIP3    H226503   5.886   2.147   8.038  0.9726  1.0337  0.9192
 3311TIP3   OH226504   0.504   2.432   2.148  0.5529  0.0212 -0.3848
 3311TIP3    H126505   0.428   2.480   2.181  0.8572 -0.3244  0.8667
 3311TIP3    H226506   0.555   2.497   2.100 -0.8966  0.0938 -1.9371
 3312TIP3   OH226507   5.857   4.873   8.792  0.0389  0.0450 -0.4653
 3312TIP3    H126508   5.769   4.858   8.757 -0.8533  1.4688  1.0173
 3312TIP3    H226509   5.852   4.959   8.834  1.9174 -0.1828  0.3290
 3313TIP3   OH226510   3.374   4.107   1.684 -0.3935 -1.0979 -0.6282
 3313TIP3    H126511   3.363   4.114   1.779  1.7749 -1.2045 -0.3150
 3313TIP3    H226512   3.446   4.165   1.664 -0.8765 -1.0042 -2.2572
 3314TIP3   OH226513   2.829   2.222   2.391 -0.0469  0.7288 -0.5017
 3314TIP3    H126514   2.791   2.278   2.323  1.6671  1.5784 -0.8242
 3314TIP3    H226515   2.848   2.282   2.463 -1.7927 -0.1542  0.7632
 3315TIP3   OH226516   1.795   3.297   8.391  0.1826  0.2281 -0.3032
 3315TIP3    H126517   1.822   3.278   8.302 -0.9590 -1.0564 -0.4046
 3315TIP3    H226518   1.751   3.382   8.385 -3.5508 -1.6049 -1.8416
 3316TIP3   OH226519   3.355   3.172   9.275  0.1894  0.3378  0.2421
 3316TIP3    H126520   3.347   3.099   9.336 -0.6267 -0.3964 -0.7066
 3316TIP3    H226521   3.448   3.196   9.278  0.0651  0.7304  2.1947
 3317TIP3   OH226522   1.586   2.601   1.470 -0.5065  0.0484 -0.5694
 3317TIP3    H126523   1.644   2.677   1.480  0.4566 -0.3312 -2.7578
 3317TIP3    H226524   1.562   2.578   1.560  1.0494  1.5095  0.2926
 3318TIP3   OH226525   1.269   2.267   2.900 -0.4498  0.4128 -1.0320
 3318TIP3    H126526   1.333   2.215   2.852  0.7103 -0.2883  1.1393
 3318TIP3    H226527   1.191   2.211   2.906 -0.1500 -0.0054 -1.0216
 3319TIP3   OH226528   0.707   4.369   8.110  0.0206 -0.2979 -0.2095
 3319TIP3    H126529   0.761   4.295   8.082  1.7093  1.3890 -1.5672
 3319TIP3    H226530   0.749   4.401   8.189 -1.4831 -1.4995  1.1825
 3320TIP3   OH226531   1.988   3.762   1.498 -0.4313 -0.3817 -0.5729
 3320TIP3    H126532   1.964   3.843   1.455 -1.1068 -0.8206 -1.0335
 3320TIP3    H226533   1.962   3.774   1.590  1.1049  0.5920 -0.2186
 3321TIP3   OH226534   6.220   4.276   8.537  0.2198  0.3012  0.4262
 3321TIP3    H126535   6.186   4.366   8.530  0.9005  0.4401 -2.3338
 3321TIP3    H226536   6.143   4.221   8.526  0.0716  0.5864 -0.0332
 3322TIP3   OH226537   1.796   2.601   0.379  0.2181  0.0900 -0.1285
 3322TIP3    H126538   1.865   2.601   0.312  0.2630 -1.4688 -0.1249
 3322TIP3    H226539   1.823   2.668   0.442  0.8476  0.6705 -1.0046
 3323TIP3   OH226540   3.900   4.457   9.114 -0.6172  0.3264  0.4510
 3323TIP3    H126541   3.828   4.521   9.111 -1.8195 -1.0159 -0.6817
 3323TIP3    H226542   3.954   4.479   9.038 -0.9018  0.1335  0.1929
 3324TIP3   OH226543   1.349   6.340   6.850 -0.3119 -0.5071 -0.3486
 3324TIP3    H126544   1.437   6.376   6.866 -0.5765  0.1901 -0.4031
 3324TIP3    H226545   1.298   6.369   6.925 -0.2780 -1.7200  0.1681
 3325TIP3   OH226546   6.310   6.219   0.711  0.2303  0.1599 -0.6594
 3325TIP3    H126547   6.218   6.202   0.689  0.2973 -0.5080 -0.4376
 3325TIP3    H226548   6.337   6.142   0.761  0.7578  0.6030 -0.2541
 3326TIP3   OH226549   6.087   2.907   1.800  0.5488  0.0937  0.2800
 3326TIP3    H126550   5.994   2.899   1.775  0.8233  1.7001 -1.4793
 3326TIP3    H226551   6.128   2.952   1.726  1.7635  3.9866  3.0009
 3327TIP3   OH226552   1.654   2.234   9.003  0.5562  0.1136 -0.1327
 3327TIP3    H126553   1.634   2.320   8.966 -2.4407 -0.5374 -0.3464
 3327TIP3    H226554   1.649   2.247   9.098  1.4588  0.4127 -0.1168
 3328TIP3   OH226555   0.498   3.975   0.063  0.1620  0.8525 -0.1008
 3328TIP3    H126556   0.441   3.948   0.135  0.5346 -0.6583 -0.3393
 3328TIP3    H226557   0.553   4.043   0.100 -0.1990  0.6573  0.8079
 3329TIP3   OH226558   3.151   1.981   2.984  0.2202  0.0653 -0.7336
 3329TIP3    H126559   3.192   2.068   2.990  0.0852  0.0464  3.7386
 3329TIP3    H226560   3.061   1.999   2.957  0.3599  1.2586 -0.4601
 3330TIP3   OH226561   6.020   4.341   0.817 -0.2679  0.0248 -0.3706
 3330TIP3    H126562   6.072   4.278   0.767  1.0785  1.4311 -0.8033
 3330TIP3    H226563   6.075   4.363   0.892 -0.3416  1.3333 -0.6901
 3331TIP3   OH226564   1.534   2.609   0.740  0.6286 -0.6436  0.6292
 3331TIP3    H126565   1.484   2.611   0.658  0.8652 -0.5473  0.4876
 3331TIP3    H226566   1.467   2.608   0.808  0.4204 -1.4918  0.4242
 3332TIP3   OH226567   1.354   2.892   8.318 -0.2388 -0.7690  0.4848
 3332TIP3    H126568   1.442   2.928   8.305 -0.1691 -0.8630  0.6894
 3332TIP3    H226569   1.332   2.915   8.408 -0.7677 -0.0173  0.1699
 3333TIP3   OH226570   3.510   3.042   8.752 -0.2312  0.4449 -0.4355
 3333TIP3    H126571   3.517   3.123   8.803 -0.0216  0.8401 -1.0783
 3333TIP3    H226572   3.555   3.062   8.670  0.6803 -0.6435 -0.2180
 3334TIP3   OH226573   4.465   3.465   2.016 -0.9240 -0.2328 -0.0317
 3334TIP3    H126574   4.423   3.480   2.101 -0.3146 -0.3851  0.3090
 3334TIP3    H226575   4.418   3.521   1.955 -0.0662  1.4716  0.7930
 3335TIP3   OH226576   5.781   4.218   7.828 -0.6544 -0.1025 -0.4585
 3335TIP3    H126577   5.763   4.312   7.825 -0.3344 -0.0688 -2.2953
 3335TIP3    H226578   5.695   4.178   7.835 -1.0911  0.2597 -2.9279
 3336TIP3   OH226579   1.523   6.114   1.070  0.2118  0.5120  0.3640
 3336TIP3    H126580   1.535   6.174   0.997  4.4337 -0.9514 -0.4828
 3336TIP3    H226581   1.524   6.027   1.029 -0.6914 -0.2842  1.9461
 3337TIP3   OH226582   4.290   6.276   2.276  0.1043 -0.3058 -0.4253
 3337TIP3    H126583   4.263   6.201   2.328  0.5543  0.4168  0.8836
 3337TIP3    H226584   4.254   6.259   2.189 -1.2348 -1.2217  0.2768
 3338TIP3   OH226585   2.520   1.927   1.601 -0.0839 -1.1021 -0.2336
 3338TIP3    H126586   2.442   1.937   1.656  0.6504 -0.8682  0.8163
 3338TIP3    H226587   2.487   1.903   1.515 -1.4872  1.5986 -0.5409
 3339TIP3   OH226588   4.925   0.861   7.066  0.1721  0.0392  0.0282
 3339TIP3    H126589   4.957   0.773   7.049  0.1988 -0.3422  1.8668
 3339TIP3    H226590   5.001   0.917   7.055  0.6782 -0.4463  0.9617
 3340TIP3   OH226591   0.273   0.747   7.742  0.1702  0.0478 -0.1111
 3340TIP3    H126592   0.255   0.829   7.697  1.3741 -1.0075 -2.6996
 3340TIP3    H226593   0.274   0.681   7.673 -0.7755 -2.2123  1.8535
 3341TIP3   OH226594   0.972   6.096   1.748  0.1059  0.2905  0.1478
 3341TIP3    H126595   0.989   6.003   1.734 -1.2565 -0.0706  0.6971
 3341TIP3    H226596   0.919   6.099   1.828  0.4549  1.5740  0.3549
 3342TIP3   OH226597   4.996   5.041   8.919  0.0300  0.8333  0.1282
 3342TIP3    H126598   4.908   5.072   8.895  0.1782  1.1928  0.0466
 3342TIP3    H226599   5.003   5.059   9.013 -0.0885  0.5513  0.1899
 3343TIP3   OH226600   5.400   1.966   7.756  0.2768 -0.1793 -0.1175
 3343TIP3    H126601   5.404   1.889   7.813 -0.3633 -1.1366 -1.2978
 3343TIP3    H226602   5.348   1.936   7.681 -0.0611  1.4486 -0.5565
 3344TIP3   OH226603   0.898   3.852   0.317 -0.5999 -0.0606  0.4126
 3344TIP3    H126604   0.834   3.806   0.262 -0.2533 -1.5083  1.1523
 3344TIP3    H226605   0.939   3.782   0.368  1.6080  0.8168 -0.0644
 3345TIP3   OH226606   0.137   5.617   7.512  0.3324 -1.0535  0.2386
 3345TIP3    H126607   0.229   5.596   7.499 -0.3563 -3.8032 -1.0733
 3345TIP3    H226608   0.125   5.615   7.607  1.8487  0.8409  0.5295
 3346TIP3   OH226609   3.653   0.312   0.999  0.1637 -0.6380  0.3367
 3346TIP3    H126610   3.646   0.373   0.926 -0.1407 -0.8494  0.1842
 3346TIP3    H226611   3.728   0.343   1.050 -1.0863  0.9576  1.2906
 3347TIP3   OH226612   0.177   4.730   9.410 -0.1011 -0.1783  0.2286
 3347TIP3    H126613   0.103   4.788   9.429 -0.0086 -0.3618  1.2163
 3347TIP3    H226614   0.143   4.668   9.345 -0.2420  0.8726 -0.7312
 3348TIP3   OH226615   2.533   4.790   9.351 -0.2749  0.3923 -0.1309
 3348TIP3    H126616   2.523   4.761   9.260  0.5273  0.8708 -0.3801
 3348TIP3    H226617   2.593   4.727   9.390  0.6807  1.1147 -0.3986
 3349TIP3   OH226618   3.458   6.182   3.089  0.1956 -0.1633  0.1329
 3349TIP3    H126619   3.469   6.098   3.133 -1.0418 -0.0637  0.6747
 3349TIP3    H226620   3.382   6.221   3.131 -0.5755  0.2756 -1.5866
 3350TIP3   OH226621   2.313   5.518   8.943  0.3706  0.4437 -0.2093
 3350TIP3    H126622   2.296   5.464   8.865 -0.3891  0.4009 -0.0230
 3350TIP3    H226623   2.405   5.542   8.935  0.9664 -1.5532  0.1185
 3351TIP3   OH226624   3.147   1.143   5.936 -0.7733 -0.1724 -0.1685
 3351TIP3    H126625   3.235   1.134   5.972 -0.8568 -1.0979 -0.1834
 3351TIP3    H226626   3.127   1.237   5.945 -0.4155 -0.2078  1.2872
 3352TIP3   OH226627   3.718   2.727   7.458  0.1894  0.1095  0.3107
 3352TIP3    H126628   3.766   2.779   7.393 -1.4913 -0.7780 -1.7709
 3352TIP3    H226629   3.664   2.791   7.505 -1.0240  0.4683 -1.4649
 3353TIP3   OH226630   3.109   6.024   8.851  0.0288  0.0925  0.7980
 3353TIP3    H126631   3.176   6.080   8.891  0.1503  2.3245 -2.1419
 3353TIP3    H226632   3.028   6.074   8.861 -0.3873 -0.5361  0.5582
 3354TIP3   OH226633   0.481   2.914   7.610 -0.4093  0.0696 -0.5142
 3354TIP3    H126634   0.492   3.004   7.582  1.7895  0.5315  1.5044
 3354TIP3    H226635   0.486   2.918   7.706  2.3998 -2.4133 -0.4097
 3355TIP3   OH226636   2.746   6.050   8.031  0.1282 -0.3052 -0.1564
 3355TIP3    H126637   2.833   6.014   8.013  0.4266  0.1246  0.3698
 3355TIP3    H226638   2.741   6.054   8.127 -0.4240 -0.2143 -0.1829
 3356TIP3   OH226639   5.752   6.177   8.296 -0.3768 -0.4181  0.1422
 3356TIP3    H126640   5.672   6.228   8.301 -1.7886 -2.2313 -2.0300
 3356TIP3    H226641   5.773   6.174   8.203  4.0802  2.5573  0.7344
 3357TIP3   OH226642   1.722   0.738   9.067 -0.4684  0.0476 -0.6247
 3357TIP3    H126643   1.800   0.788   9.042 -0.6255  1.4718  1.4918
 3357TIP3    H226644   1.753   0.647   9.073  1.4011  0.7078  1.2169
 3358TIP3   OH226645   3.126   5.046   7.372  0.0792  0.0538 -0.0700
 3358TIP3    H126646   3.089   5.090   7.296 -1.9316  0.0335  0.8539
 3358TIP3    H226647   3.175   5.114   7.417 -0.1295  0.4828 -0.4793
 3359TIP3   OH226648   4.774   1.746   1.232 -0.0844 -0.1357  0.0153
 3359TIP3    H126649   4.727   1.800   1.168 -1.1043 -2.3747 -1.2589
 3359TIP3    H226650   4.706   1.715   1.291  0.4741 -0.0850  0.6901
 3360TIP3   OH226651   6.171   2.697   1.133 -0.4936  0.1633  0.0240
 3360TIP3    H126652   6.119   2.753   1.076 -0.3791 -0.2248 -0.4720
 3360TIP3    H226653   6.233   2.756   1.175  1.4687  0.1027 -2.5452
 3361TIP3   OH226654   3.437   6.105   1.222  0.5558  0.1322  0.2201
 3361TIP3    H126655   3.439   6.017   1.185 -0.2849  1.1891 -2.6480
 3361TIP3    H226656   3.357   6.107   1.274  0.8349 -0.9108  0.7143
 3362TIP3   OH226657   3.875   4.268   1.648 -0.1819  0.3562  0.1229
 3362TIP3    H126658   3.919   4.298   1.568 -2.3518  0.5420 -1.0871
 3362TIP3    H226659   3.944   4.268   1.715  0.9583  3.7967 -0.8291
 3363TIP3   OH226660   5.140   0.135   0.559  0.6219 -0.2981  0.3535
 3363TIP3    H126661   5.103   0.223   0.547  0.4483 -0.5330 -1.0073
 3363TIP3    H226662   5.139   0.121   0.653  0.7848  1.2229  0.6123
 3364TIP3   OH226663   4.457   4.716   1.725 -0.1342  0.3241  0.0418
 3364TIP3    H126664   4.444   4.649   1.792  2.5239 -1.0930 -0.7247
 3364TIP3    H226665   4.496   4.790   1.773 -0.1109  0.0945  0.3808
 3365TIP3   OH226666   1.691   0.531   8.588 -0.2128  0.0174  0.0601
 3365TIP3    H126667   1.623   0.575   8.537 -0.9542 -1.4390 -0.2735
 3365TIP3    H226668   1.746   0.487   8.522  0.0801 -0.1547  0.4175
 3366TIP3   OH226669   5.667   3.030   2.888 -0.3348  0.6085 -0.3085
 3366TIP3    H126670   5.682   3.125   2.890 -3.4157  1.1672 -0.0106
 3366TIP3    H226671   5.651   3.006   2.979  0.8531 -0.3217 -0.3241
 3367TIP3   OH226672   0.341   0.309   1.261 -0.1189 -0.0433  0.0514
 3367TIP3    H126673   0.308   0.262   1.337  0.1587  0.1553  0.3002
 3367TIP3    H226674   0.410   0.366   1.296  0.3050 -0.2588 -0.4120
 3368TIP3   OH226675   6.183   5.843   7.457 -0.5260 -0.1668  0.3464
 3368TIP3    H126676   6.215   5.890   7.380  0.3222 -0.4904  0.4820
 3368TIP3    H226677   6.168   5.911   7.522  1.2414 -0.0876  0.7318
 3369TIP3   OH226678   1.558   1.940   0.755  0.2871 -0.4584  0.0571
 3369TIP3    H126679   1.560   1.870   0.690  1.8454  1.0173 -1.6105
 3369TIP3    H226680   1.606   2.012   0.714 -0.2381  1.1948  2.1534
 3370TIP3   OH226681   0.964   0.054   1.912 -0.3409  0.6297 -0.6133
 3370TIP3    H126682   0.931   0.070   1.824  2.0624 -0.1557 -1.7719
 3370TIP3    H226683   1.054   0.024   1.898 -0.2355 -0.5939  2.0642
 3371TIP3   OH226684   0.430   4.681   9.322 -0.0202 -0.3589 -0.0375
 3371TIP3    H126685   0.338   4.706   9.333  0.1930  0.0203  1.0578
 3371TIP3    H226686   0.461   4.664   9.411  0.7335 -1.3804 -0.4670
 3372TIP3   OH226687   5.047   3.974   2.643  0.2893  0.3123  0.2046
 3372TIP3    H126688   4.963   4.014   2.666 -0.4202 -0.9563 -0.0281
 3372TIP3    H226689   5.077   3.934   2.725  0.6135  0.6686  0.2601
 3373TIP3   OH226690   0.425   1.602   8.315 -0.9216 -0.1598 -0.1784
 3373TIP3    H126691   0.348   1.655   8.294 -0.4715  0.8011  0.5295
 3373TIP3    H226692   0.460   1.641   8.395  0.7632 -0.0736 -0.9143
 3374TIP3   OH226693   4.165   2.551   7.495 -0.3865  0.4309 -0.3482
 3374TIP3    H126694   4.198   2.530   7.582  1.6286 -1.4302 -1.4660
 3374TIP3    H226695   4.082   2.503   7.489 -0.1480 -0.0837  0.2764
 3375TIP3   OH226696   5.772   0.506   0.930  0.1813  0.1146 -0.2230
 3375TIP3    H126697   5.755   0.593   0.896  2.3597  0.9835  0.6855
 3375TIP3    H226698   5.833   0.467   0.866  1.0923  0.2010  0.5765
 3376TIP3   OH226699   4.300   6.191   6.992  0.2023 -0.5026 -0.4042
 3376TIP3    H126700   4.209   6.182   6.963 -0.1976 -0.0964  0.6764
 3376TIP3    H226701   4.330   6.271   6.949 -0.7115  0.6723  1.0263
 3377TIP3   OH226702   5.195   2.432   7.025 -0.6058  0.2190  0.2930
 3377TIP3    H126703   5.191   2.463   6.935  1.7579 -0.6283 -0.1597
 3377TIP3    H226704   5.284   2.451   7.054 -1.1491 -0.0092  2.2834
 3378TIP3   OH226705   2.564   2.749   0.154 -0.1376 -0.0572 -0.0037
 3378TIP3    H126706   2.560   2.806   0.077 -0.2155 -0.8666 -0.6051
 3378TIP3    H226707   2.504   2.678   0.135  1.2253 -1.2579 -0.0216
 3379TIP3   OH226708   2.925   5.753  -0.000 -0.2876  0.2747  0.2267
 3379TIP3    H126709   2.902   5.666   0.032 -1.3216  0.3679 -0.1998
 3379TIP3    H226710   2.995   5.783   0.058 -0.7749 -0.3344  1.1566
 3380TIP3   OH226711   2.721   0.894   1.472 -0.1245 -0.0921  0.3949
 3380TIP3    H126712   2.665   0.828   1.429 -0.3037  0.5695 -0.4145
 3380TIP3    H226713   2.808   0.880   1.435 -0.1932  0.2162  0.1130
 3381TIP3   OH226714   4.614   5.695   8.289 -0.6105  0.2667 -0.2183
 3381TIP3    H126715   4.583   5.656   8.207 -2.5975  0.2020  0.5173
 3381TIP3    H226716   4.561   5.654   8.357  2.8045 -1.7719  1.5312
 3382TIP3   OH226717   0.993   4.522   8.744 -0.3250 -0.2409  0.6403
 3382TIP3    H126718   0.916   4.576   8.726 -1.2310 -1.3558  1.0581
 3382TIP3    H226719   0.958   4.442   8.781  0.9289 -1.4889 -0.7409
 3383TIP3   OH226720   0.917   3.510   6.640 -0.3356 -0.2497 -1.0197
 3383TIP3    H126721   0.989   3.564   6.606 -0.2350  1.1267  1.2552
 3383TIP3    H226722   0.844   3.528   6.581 -0.5621  3.0887  0.1075
 3384TIP3   OH226723   3.481   5.745   8.565 -0.0549 -0.0514  0.1902
 3384TIP3    H126724   3.457   5.832   8.597 -0.4379  0.2745 -0.9166
 3384TIP3    H226725   3.404   5.691   8.583  0.5946 -0.4533  1.8779
 3385TIP3   OH226726   4.839   5.636   0.082 -0.1707  0.4098  0.0688
 3385TIP3    H126727   4.783   5.580   0.136  0.1145 -0.8171 -0.8599
 3385TIP3    H226728   4.924   5.635   0.127  0.2007 -0.9898 -0.5842
 3386TIP3   OH226729   2.374   3.474   1.114 -0.3811  0.1723  0.0618
 3386TIP3    H126730   2.335   3.416   1.049 -0.1057 -1.3181  1.1539
 3386TIP3    H226731   2.349   3.562   1.087 -1.5635 -0.5110 -1.1796
 3387TIP3   OH226732   2.498   2.030   2.445 -0.6099  0.6727  0.0660
 3387TIP3    H126733   2.527   2.106   2.394  1.4805  0.3407  0.6409
 3387TIP3    H226734   2.502   2.060   2.536 -0.4495  0.0998  0.2519
 3388TIP3   OH226735   4.740   3.304   0.690 -0.1625 -0.1787 -0.0923
 3388TIP3    H126736   4.750   3.210   0.673 -2.2664 -0.3724 -0.4974
 3388TIP3    H226737   4.650   3.324   0.664 -0.2312  1.6707  1.3610
 3389TIP3   OH226738   0.085   3.839   0.533 -0.0402 -0.0031 -0.1845
 3389TIP3    H126739   0.099   3.870   0.622 -0.9553  0.4377 -0.1770
 3389TIP3    H226740   0.098   3.744   0.538 -0.1992  0.0070  0.4437
 3390TIP3   OH226741   3.986   5.489   2.463  0.1510 -0.0574 -0.1150
 3390TIP3    H126742   4.023   5.538   2.536 -1.3235 -0.6529  1.0824
 3390TIP3    H226743   4.062   5.447   2.422  0.8866 -1.2116  2.2253
 3391TIP3   OH226744   1.722   3.944   0.397 -0.2199  0.1389  0.2619
 3391TIP3    H126745   1.658   3.986   0.339  0.6540  2.4286  0.8321
 3391TIP3    H226746   1.735   3.857   0.361 -1.9740  0.4146 -1.1641
 3392TIP3   OH226747   5.403   5.524   9.027 -0.5100 -0.0504 -0.7747
 3392TIP3    H126748   5.367   5.595   9.081 -0.1664  0.6279 -1.4145
 3392TIP3    H226749   5.388   5.552   8.937  0.4224 -0.3688 -1.0444
 3393TIP3   OH226750   3.381   2.016   7.601 -0.0265 -0.2681  0.0273
 3393TIP3    H126751   3.335   1.940   7.565 -0.8219 -1.4785  3.2617
 3393TIP3    H226752   3.337   2.091   7.560 -2.5963 -1.4691  0.3682
 3394TIP3   OH226753   4.524   3.311   7.538 -0.2521  0.3868  0.1802
 3394TIP3    H126754   4.601   3.334   7.487 -0.2166  0.8147  0.4177
 3394TIP3    H226755   4.477   3.394   7.550 -0.3316  0.2731  0.7141
 3395TIP3   OH226756   2.925   2.289   1.671  0.1523 -0.0149 -0.2035
 3395TIP3    H126757   2.879   2.209   1.695  1.5311 -1.5803 -2.4027
 3395TIP3    H226758   3.007   2.286   1.720 -0.0083  0.3226  0.0906
 3396TIP3   OH226759   2.992   0.586   1.374 -0.3170 -0.3552  0.0277
 3396TIP3    H126760   2.936   0.573   1.451 -1.9354 -2.0745 -1.3326
 3396TIP3    H226761   2.935   0.564   1.300  1.4166  0.4720 -1.6197
 3397TIP3   OH226762   4.032   3.738   8.923 -0.0550  0.2806 -0.2658
 3397TIP3    H126763   3.944   3.700   8.924  0.0318 -0.0234 -1.7322
 3397TIP3    H226764   4.035   3.793   9.002 -0.9874 -0.9431  0.6763
 3398TIP3   OH226765   3.284   2.137   8.605 -0.0999  0.1458  0.1522
 3398TIP3    H126766   3.251   2.210   8.657 -1.1146 -1.3959  1.7887
 3398TIP3    H226767   3.357   2.102   8.657  0.9997  0.5490 -1.0755
 3399TIP3   OH226768   3.793   5.401   1.447  0.7659  0.1630 -0.5083
 3399TIP3    H126769   3.755   5.465   1.386  0.5158  0.3902 -0.1175
 3399TIP3    H226770   3.808   5.451   1.527  0.2661 -0.3432 -0.0965
 3400TIP3   OH226771   3.290   5.357   0.286 -0.3070 -0.3324 -0.8472
 3400TIP3    H126772   3.262   5.378   0.375 -0.7208 -2.7415 -0.3369
 3400TIP3    H226773   3.232   5.409   0.230 -0.4447  0.7621  0.2639
 3401TIP3   OH226774   1.990   1.093   7.558  0.3954  1.1833 -0.3815
 3401TIP3    H126775   1.962   1.163   7.617 -1.5881  0.2956 -0.1919
 3401TIP3    H226776   2.060   1.049   7.606 -0.8176  0.8070  1.1347
 3402TIP3   OH226777   1.173   3.523   8.199 -0.6430 -0.5385  0.3000
 3402TIP3    H126778   1.116   3.542   8.274 -0.0840 -0.9679  0.8480
 3402TIP3    H226779   1.115   3.525   8.123 -1.3403 -0.7104  0.8192
 3403TIP3   OH226780   0.831   0.399   1.530 -0.3294  0.1693  0.1717
 3403TIP3    H126781   0.883   0.450   1.593  0.4280  1.6465 -1.5597
 3403TIP3    H226782   0.896   0.348   1.481 -0.7943 -0.0834 -0.1839
 3404TIP3   OH226783   5.026   2.504   8.114 -0.0334  0.5165  0.0332
 3404TIP3    H126784   5.004   2.417   8.147  0.0283 -0.3443 -2.0435
 3404TIP3    H226785   5.121   2.509   8.119 -0.1128  1.1406  1.6342
 3405TIP3   OH226786   0.869   1.787   8.692 -0.1790 -0.6128  0.0279
 3405TIP3    H126787   0.911   1.772   8.776 -0.0225  0.4655  0.1659
 3405TIP3    H226788   0.934   1.837   8.641 -0.2307 -1.3381 -0.7698
 3406TIP3   OH226789   3.847   4.458   2.435 -0.6894 -0.7185 -0.0884
 3406TIP3    H126790   3.838   4.483   2.527  0.9059  2.4215 -0.6436
 3406TIP3    H226791   3.942   4.457   2.420 -0.8793 -2.3209 -1.4648
 3407TIP3   OH226792   1.452   6.440   1.734  0.6256  0.2898 -0.2359
 3407TIP3    H126793   1.397   6.478   1.666  0.9888 -0.6055 -1.0488
 3407TIP3    H226794   1.449   6.346   1.718 -0.4646 -0.1183  1.8857
 3408TIP3   OH226795   6.418   3.836   9.149  0.1414 -0.7648 -0.4512
 3408TIP3    H126796   6.507   3.869   9.162  1.2172 -1.6510 -4.1374
 3408TIP3    H226797   6.372   3.907   9.106 -1.1342 -0.1829  1.7626
 3409TIP3   OH226798   6.350   1.673   9.145 -0.0243 -0.0630 -0.1716
 3409TIP3    H126799   6.358   1.767   9.127 -1.1984 -0.0895 -0.9719
 3409TIP3    H226800   6.312   1.668   9.233  0.9191  0.1821  0.2580
 3410TIP3   OH226801   3.721   2.489   7.316  0.2228  0.4793  0.5091
 3410TIP3    H126802   3.640   2.449   7.346 -0.3371  0.3404 -1.0799
 3410TIP3    H226803   3.704   2.583   7.317 -0.5087  0.4019 -1.1779
 3411TIP3   OH226804   0.625   5.207   7.167 -0.5761  0.1129  0.0029
 3411TIP3    H126805   0.688   5.280   7.173 -0.7926  0.6050 -2.4734
 3411TIP3    H226806   0.541   5.250   7.150 -1.5297 -0.5782  2.5429
 3412TIP3   OH226807   1.890   4.674   1.321  0.0444 -0.5740  0.1400
 3412TIP3    H126808   1.973   4.641   1.287 -0.5072 -1.9114  0.0558
 3412TIP3    H226809   1.833   4.681   1.244  0.4772  1.7610 -0.0564
 3413TIP3   OH226810   3.510   2.968   1.156  0.2706 -0.2221 -0.2174
 3413TIP3    H126811   3.462   3.014   1.087  0.0243 -0.8284 -0.4665
 3413TIP3    H226812   3.452   2.894   1.179 -0.1172  0.5300  1.3457
 3414TIP3   OH226813   6.256   4.860   6.379 -0.5242 -0.2203 -0.0841
 3414TIP3    H126814   6.238   4.801   6.306 -1.4198  0.0418 -0.0839
 3414TIP3    H226815   6.176   4.857   6.432 -0.3283  0.4980  0.2533
 3415TIP3   OH226816   0.863   5.526   7.644  0.0692  0.3223  0.1785
 3415TIP3    H126817   0.805   5.595   7.675 -0.7661 -0.9326  1.5779
 3415TIP3    H226818   0.840   5.514   7.551 -2.2019 -0.3468  0.7620
 3416TIP3   OH226819   5.803   3.485   7.760 -0.2054  0.2542 -0.7250
 3416TIP3    H126820   5.844   3.446   7.683 -0.3531  0.4702 -0.9163
 3416TIP3    H226821   5.824   3.578   7.753  1.2145  0.0420  0.3920
 3417TIP3   OH226822   3.220   2.725   1.410 -0.1455  0.1044  0.3357
 3417TIP3    H126823   3.170   2.653   1.447  1.5330 -0.6759  1.2200
 3417TIP3    H226824   3.162   2.801   1.417 -2.3650 -1.2736 -1.5828
 3418TIP3   OH226825   4.610   5.334   8.721 -0.1828  0.3130  0.2020
 3418TIP3    H126826   4.576   5.406   8.774  0.7898 -0.1353  1.4843
 3418TIP3    H226827   4.583   5.355   8.631 -0.8839  1.6807  0.7084
 3419TIP3   OH226828   6.387   5.967   2.452 -0.2912  0.2560 -0.0192
 3419TIP3    H126829   6.362   5.880   2.482  1.9031 -0.5461 -0.2939
 3419TIP3    H226830   6.357   5.970   2.361  0.6028 -0.6906 -0.3688
 3420TIP3   OH226831   3.428   0.727   0.722 -0.0555  0.5260 -0.0214
 3420TIP3    H126832   3.420   0.687   0.809 -0.4764 -0.8550 -0.6709
 3420TIP3    H226833   3.338   0.746   0.697  0.0355  0.5178 -0.3481
 3421TIP3   OH226834   3.095   4.349   7.697 -0.1378 -0.1398 -0.3726
 3421TIP3    H126835   3.141   4.335   7.614 -1.8412  0.4102 -1.4768
 3421TIP3    H226836   3.030   4.278   7.700 -0.8046  0.4655 -0.0735
 3422TIP3   OH226837   5.253   4.317   2.233  0.1132 -0.0106  0.2644
 3422TIP3    H126838   5.257   4.282   2.144 -1.1869  0.9171 -0.1820
 3422TIP3    H226839   5.274   4.242   2.289  0.5859 -0.6919 -0.7903
 3423TIP3   OH226840   2.752   3.633   2.507  0.3038  0.1838 -0.4684
 3423TIP3    H126841   2.727   3.642   2.598  0.0047 -2.0685 -0.2873
 3423TIP3    H226842   2.822   3.698   2.495 -0.2196  1.0792  1.1029
 3424TIP3   OH226843   2.023   3.002   8.453  0.2135 -0.0011  0.2143
 3424TIP3    H126844   2.092   2.938   8.436  0.7528  0.9179 -1.2161
 3424TIP3    H226845   2.047   3.079   8.401 -1.4682  0.6419  0.2993
 3425TIP3   OH226846   3.658   3.343   9.374 -0.2035 -0.0568 -0.4416
 3425TIP3    H126847   3.681   3.251   9.361 -0.9884 -0.3188 -0.0232
 3425TIP3    H226848   3.707   3.390   9.307  1.1865 -0.6387  0.1333
 3426TIP3   OH226849   5.571   0.184   8.789  0.4882  0.2414 -0.4800
 3426TIP3    H126850   5.589   0.123   8.718 -2.6821  1.4004 -2.5235
 3426TIP3    H226851   5.546   0.265   8.745  0.5220  1.7417  2.0447
 3427TIP3   OH226852   2.685   1.365   2.412  0.2356 -0.1352 -0.0870
 3427TIP3    H126853   2.732   1.418   2.347  1.0913  0.2682  0.8313
 3427TIP3    H226854   2.750   1.300   2.439 -0.2285 -0.5100  0.1248
 3428TIP3   OH226855   0.830   4.629   6.807  1.1211 -0.4422 -0.1633
 3428TIP3    H126856   0.904   4.606   6.751  0.9175 -0.5147 -0.4016
 3428TIP3    H226857   0.830   4.725   6.809  0.0154 -0.3720 -1.7899
 3429TIP3   OH226858   2.090   1.693   1.274  0.1342  0.0345  0.1397
 3429TIP3    H126859   2.108   1.741   1.355  0.4911 -1.8107  1.2100
 3429TIP3    H226860   2.162   1.631   1.267 -2.6166 -3.6581  1.4738
 3430TIP3   OH226861   1.547   1.711   1.758  0.3226  0.0405 -0.0387
 3430TIP3    H126862   1.561   1.657   1.680  2.7586  0.4203  0.0622
 3430TIP3    H226863   1.470   1.673   1.801 -0.2061 -1.0552 -1.8527
 3431TIP3   OH226864   1.918   0.636   6.986 -0.3839  0.3581  0.4224
 3431TIP3    H126865   1.952   0.547   6.989  0.5655  0.7069  0.4161
 3431TIP3    H226866   1.828   0.628   7.016  0.2548 -0.3407  2.3338
 3432TIP3   OH226867   4.056   6.218   6.890 -0.3668 -0.1721 -0.3952
 3432TIP3    H126868   4.020   6.152   6.831 -0.8606  0.1051 -0.4067
 3432TIP3    H226869   3.983   6.245   6.945 -0.9592  2.3904 -2.2199
 3433TIP3   OH226870   2.711   6.179   7.340  0.0006  0.5219  0.0810
 3433TIP3    H126871   2.625   6.215   7.362 -1.1528  0.0761 -3.1260
 3433TIP3    H226872   2.756   6.251   7.294  1.0049  0.4531  0.9176
 3434TIP3   OH226873   2.096   0.401   7.615  0.2308 -0.2710  0.2042
 3434TIP3    H126874   2.085   0.308   7.595  0.4200 -0.5442  1.2935
 3434TIP3    H226875   2.110   0.443   7.530 -0.4588 -1.1505 -0.3586
 3435TIP3   OH226876   0.601   2.192   0.628  0.6575  0.0768 -0.1501
 3435TIP3    H126877   0.590   2.175   0.721 -1.1071 -0.3019 -0.3907
 3435TIP3    H226878   0.575   2.284   0.617 -0.8037 -0.3590 -0.4950
 3436TIP3   OH226879   3.086   0.144   8.224  0.1683 -0.4000  0.0283
 3436TIP3    H126880   3.178   0.169   8.214 -0.0062  0.8242  1.2207
 3436TIP3    H226881   3.037   0.213   8.180 -0.2037 -0.8328 -0.2493
 3437TIP3   OH226882   1.212   3.604   2.580 -0.5225  0.1683 -0.0171
 3437TIP3    H126883   1.235   3.650   2.661 -2.1771 -0.8552  1.1044
 3437TIP3    H226884   1.254   3.519   2.587 -1.5586 -0.3278  0.2966
 3438TIP3   OH226885   4.333   0.287   1.592  0.0990 -0.8993 -0.8399
 3438TIP3    H126886   4.372   0.370   1.618 -0.0103 -0.1178 -2.9828
 3438TIP3    H226887   4.385   0.221   1.638  1.1869  0.2710 -0.3103
 3439TIP3   OH226888   1.111   1.728   0.554  0.2827  0.3118  0.1514
 3439TIP3    H126889   1.086   1.744   0.645 -2.2300  0.4703 -0.4838
 3439TIP3    H226890   1.168   1.802   0.532 -1.0722  1.6363  0.8939
 3440TIP3   OH226891   1.497   4.939   9.216  0.2105  0.1430  0.0124
 3440TIP3    H126892   1.485   4.908   9.306 -0.7068  0.2826 -0.0489
 3440TIP3    H226893   1.482   5.033   9.220  0.3979  0.1851 -0.2459
 3441TIP3   OH226894   1.154   5.601   5.962  0.1916 -0.0589 -0.3846
 3441TIP3    H126895   1.182   5.521   6.006  1.2728  0.4283 -0.1487
 3441TIP3    H226896   1.082   5.574   5.905  1.3698 -1.4277 -1.2585
 3442TIP3   OH226897   5.255   2.915   6.789 -0.2653  0.1078  0.1508
 3442TIP3    H126898   5.161   2.926   6.800 -0.3983 -0.0432 -0.8076
 3442TIP3    H226899   5.280   2.983   6.728 -0.0338 -0.8783 -0.8819
 3443TIP3   OH226900   0.982   0.554   1.016 -0.5152 -0.3807  0.6036
 3443TIP3    H126901   0.953   0.645   1.022  0.2359  0.0940 -1.8311
 3443TIP3    H226902   0.910   0.503   1.052 -1.3313  1.1327  1.1932
 3444TIP3   OH226903   1.574   3.576   9.146  0.1427  0.5079 -0.2042
 3444TIP3    H126904   1.620   3.627   9.213 -1.9182  1.7291  0.4049
 3444TIP3    H226905   1.620   3.595   9.065  2.0272 -0.1265  0.6625
 3445TIP3   OH226906   2.977   0.587   8.117 -1.0270  0.3381  0.1576
 3445TIP3    H126907   3.054   0.625   8.158 -2.1797  0.7614  2.0412
 3445TIP3    H226908   2.940   0.658   8.065  0.7565 -0.3605 -2.2372
 3446TIP3   OH226909   0.762   4.549   9.270  0.2420  0.4943  0.4802
 3446TIP3    H126910   0.740   4.475   9.327 -1.1471 -0.2302 -0.8871
 3446TIP3    H226911   0.779   4.509   9.185  0.8471  1.6570  0.0286
 3447TIP3   OH226912   6.372   0.895   6.771  0.0678  0.0027  0.3320
 3447TIP3    H126913   6.341   0.936   6.852  1.2554  0.9747  0.3072
 3447TIP3    H226914   6.447   0.842   6.798  2.1921  2.4270 -0.4607
 3448TIP3   OH226915   3.763   2.524   8.389  0.2604 -0.0199 -0.2478
 3448TIP3    H126916   3.748   2.590   8.321 -1.6256  2.6320  2.4637
 3448TIP3    H226917   3.857   2.530   8.409  0.4788  0.4347 -1.3669
 3449TIP3   OH226918   2.133   3.970   1.181  0.3846 -0.4259 -0.3001
 3449TIP3    H126919   2.060   3.929   1.228 -0.8108  0.2614 -1.5146
 3449TIP3    H226920   2.112   3.958   1.089  1.0444  1.1018 -0.6742
 3450TIP3   OH226921   2.301   5.894   7.917 -0.3102  0.5470 -0.0779
 3450TIP3    H126922   2.281   5.860   7.830 -2.0102  0.2017  0.4028
 3450TIP3    H226923   2.220   5.937   7.945 -0.4471 -0.9039  2.0296
 3451TIP3   OH226924   4.135   0.067   0.798  0.4468 -0.0183  0.1560
 3451TIP3    H126925   4.195   0.080   0.872  0.6504  0.3275 -0.0698
 3451TIP3    H226926   4.156  -0.020   0.765 -0.1261 -0.4812  0.9434
 3452TIP3   OH226927   4.416   3.202   2.008  0.2582 -0.2970 -0.0686
 3452TIP3    H126928   4.438   3.294   1.995 -0.1751 -0.3529 -1.3585
 3452TIP3    H226929   4.401   3.194   2.102 -0.6074  1.1695 -0.0461
 3453TIP3   OH226930   3.623   5.379   8.433  0.3569  0.1242  0.1542
 3453TIP3    H126931   3.631   5.435   8.511  0.2254  0.6048 -0.1713
 3453TIP3    H226932   3.701   5.399   8.381  1.4027 -1.5458  0.9979
 3454TIP3   OH226933   4.329   4.451   7.994 -0.0455 -0.2586 -0.0977
 3454TIP3    H126934   4.267   4.399   7.943  0.3202 -0.9920  0.1870
 3454TIP3    H226935   4.335   4.406   8.078  2.7174 -1.7047 -0.9275
 3455TIP3   OH226936   2.157   5.834   7.673 -0.2593 -0.1364 -0.2850
 3455TIP3    H126937   2.087   5.897   7.689 -0.8295 -1.2222  1.8417
 3455TIP3    H226938   2.187   5.853   7.584 -1.3016  2.2203 -0.1865
 3456TIP3   OH226939   5.772   3.772   3.241  0.0647  0.9903  0.4703
 3456TIP3    H126940   5.724   3.690   3.225  0.5188  0.7459  0.3429
 3456TIP3    H226941   5.705   3.833   3.272 -0.1035  0.2818  1.5461
 3457TIP3   OH226942   3.326   1.756   7.465 -0.0766 -0.1714 -0.4898
 3457TIP3    H126943   3.352   1.664   7.472 -2.3389 -0.9279 -1.0215
 3457TIP3    H226944   3.311   1.769   7.371  1.5949  1.2008 -0.6078
 3458TIP3   OH226945   4.013   5.513   1.927 -0.6002  0.6285  0.1235
 3458TIP3    H126946   4.021   5.451   2.000 -0.5148  1.2755  0.6836
 3458TIP3    H226947   4.100   5.514   1.887 -0.8377 -0.2607 -0.4476
 3459TIP3   OH226948   1.598   2.184   7.286 -0.2401  0.3590 -0.4933
 3459TIP3    H126949   1.581   2.095   7.316 -1.2056  0.7753  0.2641
 3459TIP3    H226950   1.525   2.236   7.321  1.7937  2.0086  1.6690
 3460TIP3   OH226951   6.067   5.114   0.303 -0.4640  0.0176  0.3381
 3460TIP3    H126952   5.996   5.052   0.316  0.3024 -0.5641  2.0727
 3460TIP3    H226953   6.130   5.067   0.248 -0.7966  0.0376 -0.0666
 3461TIP3   OH226954   2.123   3.596   1.313  0.3310  0.2396 -0.1228
 3461TIP3    H126955   2.070   3.648   1.373  0.1035 -0.4371  0.2764
 3461TIP3    H226956   2.101   3.628   1.226 -2.3755 -1.4338 -0.1636
 3462TIP3   OH226957   2.607   3.409   2.849 -0.6269 -0.3876 -0.7218
 3462TIP3    H126958   2.586   3.404   2.943 -2.4125 -0.2847 -1.0782
 3462TIP3    H226959   2.617   3.502   2.831 -0.1001 -0.4206 -0.5911
 3463TIP3   OH226960   0.623   0.499   1.654  0.0702 -0.7742 -0.1094
 3463TIP3    H126961   0.583   0.415   1.671  0.6920 -1.1066 -0.2520
 3463TIP3    H226962   0.689   0.482   1.587 -1.4824  0.2755 -2.0027
 3464TIP3   OH226963   1.779   4.303   0.515  0.2148  0.8444  0.1937
 3464TIP3    H126964   1.839   4.353   0.570  1.1088  0.0777 -0.0644
 3464TIP3    H226965   1.810   4.317   0.426 -0.3198  0.8685  0.0061
 3465TIP3   OH226966   4.932   6.369   3.061  0.0203 -0.2897  0.5745
 3465TIP3    H126967   4.995   6.348   2.992 -0.3217  0.1887  0.1096
 3465TIP3    H226968   4.881   6.289   3.072  0.6941 -0.6732  0.9374
 3466TIP3   OH226969   4.230   6.049   1.565  0.2695 -0.3415  0.0821
 3466TIP3    H126970   4.147   6.072   1.607  0.5720 -1.1520  1.1866
 3466TIP3    H226971   4.205   5.999   1.488 -0.2820  0.1430 -0.0591
 3467TIP3   OH226972   5.910   3.929   0.919  0.3825 -0.5139 -0.1258
 3467TIP3    H126973   5.912   3.836   0.941  0.4920 -0.0152  2.2671
 3467TIP3    H226974   5.900   3.973   1.003 -0.0697  1.6419 -1.2308
 3468TIP3   OH226975   5.403   6.089   2.284  0.1965 -0.8364  0.2284
 3468TIP3    H126976   5.426   6.094   2.376  0.6689 -0.9530  0.1177
 3468TIP3    H226977   5.459   6.154   2.241 -0.2671 -0.5317  0.0701
 3469TIP3   OH226978   2.056   6.366   7.053  0.4496 -0.2101 -0.5135
 3469TIP3    H126979   1.975   6.410   7.077  0.8306 -0.6099  1.6288
 3469TIP3    H226980   2.125   6.427   7.078  0.8736 -0.5920 -0.7394
 3470TIP3   OH226981   3.009   4.503   9.005 -0.0340 -0.0203 -0.1213
 3470TIP3    H126982   3.082   4.464   9.054  0.1315  2.8420  2.2595
 3470TIP3    H226983   3.020   4.472   8.916  3.0723 -1.1070  0.5098
 3471TIP3   OH226984   1.880   4.349   0.257 -0.2240 -0.1978  0.1539
 3471TIP3    H126985   1.963   4.384   0.226  0.0984  0.3908  1.6169
 3471TIP3    H226986   1.819   4.422   0.250 -0.3491 -0.3023  0.1425
 3472TIP3   OH226987   0.724   5.252   0.613  0.1120 -0.0541 -0.2590
 3472TIP3    H126988   0.795   5.297   0.659 -0.6954  0.4079  0.5781
 3472TIP3    H226989   0.758   5.164   0.598  0.4102 -0.2393  1.2768
 3473TIP3   OH226990   5.278   1.470   1.239 -0.1454 -0.2284 -0.0889
 3473TIP3    H126991   5.312   1.395   1.288  1.2443  0.4607  0.0424
 3473TIP3    H226992   5.200   1.436   1.195  1.0440 -2.0672 -0.9075
 3474TIP3   OH226993   1.384   0.437   1.288 -0.0201 -0.6267 -0.2296
 3474TIP3    H126994   1.296   0.436   1.252 -0.0196 -1.3426 -0.2209
 3474TIP3    H226995   1.382   0.505   1.355 -1.1294 -1.9831  1.1753
 3475TIP3   OH226996   5.214   4.026   7.608  0.1151  0.0376 -0.2274
 3475TIP3    H126997   5.229   4.100   7.667 -0.8097  0.3203 -0.3315
 3475TIP3    H226998   5.184   3.955   7.665  3.3867 -1.1385  0.2667
 3476TIP3   OH226999   4.014   1.452   8.125  0.1108  0.0000  0.0735
 3476TIP3    H127000   3.943   1.392   8.146  0.7168 -1.4231 -1.6818
 3476TIP3    H227001   4.092   1.396   8.119  0.7695  1.0030 -1.2308
 3477TIP3   OH227002   0.019   2.789   0.579  0.3850  0.3366 -0.0210
 3477TIP3    H127003  -0.030   2.839   0.514 -2.8153 -0.4091  1.6041
 3477TIP3    H227004   0.042   2.708   0.534 -0.3358  0.5001 -0.7176
 3478TIP3   OH227005   3.464   4.664   0.201 -0.1234 -0.2546 -0.9269
 3478TIP3    H127006   3.407   4.608   0.253 -0.1274 -0.5055 -1.2026
 3478TIP3    H227007   3.531   4.693   0.263  0.4052 -1.2918 -0.9990
 3479TIP3   OH227008   2.690   3.901   1.545  0.0888  0.1211 -0.1498
 3479TIP3    H127009   2.607   3.866   1.576 -0.1729 -0.2719 -1.2613
 3479TIP3    H227010   2.686   3.995   1.566 -0.5024  0.0484  0.0610
 3480TIP3   OH227011   1.927   3.023   2.059  0.2354 -0.4214 -0.0264
 3480TIP3    H127012   1.984   3.005   2.133  1.8911  1.9815 -0.6142
 3480TIP3    H227013   1.974   3.087   2.006 -1.3820 -1.1669 -2.5849
 3481TIP3   OH227014   1.225   5.895   6.437 -0.5397 -0.4897  0.4505
 3481TIP3    H127015   1.317   5.870   6.447 -0.4768 -0.4730 -0.0543
 3481TIP3    H227016   1.201   5.864   6.349 -0.1083  2.1829 -0.7210
 3482TIP3   OH227017   4.745   6.106   0.861 -0.5697 -0.0082  0.2980
 3482TIP3    H127018   4.656   6.125   0.832 -0.6749 -0.3795  0.3773
 3482TIP3    H227019   4.779   6.190   0.892 -0.8857  0.1358  0.2522
 3483TIP3   OH227020   1.683   1.651   2.364 -0.6195  0.1812 -0.0011
 3483TIP3    H127021   1.747   1.683   2.427 -0.6404 -0.7204  0.5043
 3483TIP3    H227022   1.599   1.683   2.396 -0.6555 -0.4638  0.5708
 3484TIP3   OH227023   6.210   4.412   9.118 -0.0800 -0.3859 -0.6536
 3484TIP3    H127024   6.291   4.395   9.070 -0.2125 -2.1050 -0.3476
 3484TIP3    H227025   6.171   4.325   9.129 -2.1082  0.4258 -1.0331
 3485TIP3   OH227026   0.134   3.075   6.119  0.0438 -0.3979 -1.0077
 3485TIP3    H127027   0.122   2.994   6.069  0.7131 -0.9142 -0.3604
 3485TIP3    H227028   0.226   3.075   6.144 -0.1702  0.0637 -0.1566
 3486TIP3   OH227029   5.506   5.320   1.646 -0.0192 -0.4347  0.7240
 3486TIP3    H127030   5.426   5.360   1.612 -0.3069  0.0685  1.9356
 3486TIP3    H227031   5.537   5.264   1.575 -0.4287  0.7852 -0.4475
 3487TIP3   OH227032   3.081   4.668   0.259  0.4540  0.4736 -1.0868
 3487TIP3    H127033   3.127   4.709   0.185  1.6005  0.9251 -0.1508
 3487TIP3    H227034   3.146   4.610   0.299 -0.4070 -0.3967 -0.9103
 3488TIP3   OH227035   4.346   4.274   6.780  0.0313 -0.0288  0.2343
 3488TIP3    H127036   4.430   4.317   6.792  0.3891 -0.2277 -1.3518
 3488TIP3    H227037   4.365   4.181   6.790 -0.6601  0.0476  3.2090
 3489TIP3   OH227038   0.541   3.010   8.386 -0.1328  0.5444  0.1886
 3489TIP3    H127039   0.570   3.039   8.473 -0.3982  2.6292 -0.3488
 3489TIP3    H227040   0.541   2.915   8.391  0.0611  0.6021  2.4088
 3490TIP3   OH227041   2.933   1.717   0.513 -0.5668  0.0782 -0.0262
 3490TIP3    H127042   2.881   1.744   0.437 -0.1935  2.1228  0.3931
 3490TIP3    H227043   3.024   1.735   0.487 -0.5744  3.2783  1.7402
 3491TIP3   OH227044   2.379   1.702   6.582 -0.2084 -0.7167  0.7592
 3491TIP3    H127045   2.308   1.647   6.551 -0.5131 -0.4813  1.0239
 3491TIP3    H227046   2.415   1.655   6.657 -0.7261 -0.3713  1.2289
 3492TIP3   OH227047   3.885   5.175   1.172  0.1798  0.0075 -0.1254
 3492TIP3    H127048   3.851   5.254   1.131  0.0965 -0.5045 -1.0801
 3492TIP3    H227049   3.967   5.202   1.214 -0.4443  0.8458  0.5996
 3493TIP3   OH227050   3.779   5.624   2.083 -0.2630 -0.3923 -0.9394
 3493TIP3    H127051   3.767   5.531   2.102  0.6148 -0.1695  0.8282
 3493TIP3    H227052   3.857   5.627   2.029 -0.6183 -0.7143 -1.4867
 3494TIP3   OH227053   0.515   5.678   7.782  0.0388 -0.1514 -0.1569
 3494TIP3    H127054   0.564   5.602   7.811  1.9106  1.4166  1.0789
 3494TIP3    H227055   0.503   5.730   7.862 -0.2883  1.3055 -1.1221
 3495TIP3   OH227056   1.506   3.826   2.727  0.9336 -0.4340  0.7662
 3495TIP3    H127057   1.450   3.760   2.768  0.0030  0.0911  0.3747
 3495TIP3    H227058   1.469   3.910   2.754  1.3305 -0.0808  0.2363
 3496TIP3   OH227059   2.664   5.992   8.826  0.5782  0.3778  0.2418
 3496TIP3    H127060   2.711   6.075   8.822  0.8688  0.3423  2.0695
 3496TIP3    H227061   2.724   5.928   8.788  0.7757  0.8267 -0.2060
 3497TIP3   OH227062   2.782   3.009   8.752  0.9391 -0.0160 -0.1525
 3497TIP3    H127063   2.741   3.029   8.668 -0.2807 -0.5040  0.3041
 3497TIP3    H227064   2.842   3.082   8.767  0.4894  0.5538 -1.0094
 3498TIP3   OH227065   4.720   2.710   8.336  0.1505  0.0830 -0.1237
 3498TIP3    H127066   4.773   2.789   8.333  0.6286 -0.2197  0.2161
 3498TIP3    H227067   4.636   2.739   8.371  1.4775 -0.1427  3.7510
 3499TIP3   OH227068   3.868   4.475   0.167 -0.5022  0.4519 -0.3716
 3499TIP3    H127069   3.817   4.499   0.090  0.1351 -0.9697 -1.2996
 3499TIP3    H227070   3.959   4.482   0.139 -0.2541 -2.7176 -0.7225
 3500TIP3   OH227071   5.288   1.900   8.491  0.1841 -0.6512  0.0363
 3500TIP3    H127072   5.210   1.899   8.547  0.4711  0.6562  0.4811
 3500TIP3    H227073   5.361   1.911   8.552  0.5047  0.8187 -0.5833
 3501TIP3   OH227074   0.034   3.565   0.268  0.4470  0.4342  0.5630
 3501TIP3    H127075  -0.007   3.646   0.238 -1.6730 -0.8312 -0.1955
 3501TIP3    H227076   0.073   3.587   0.353 -0.3943  2.1432  0.5355
 3502TIP3   OH227077   5.180   1.290   1.968  0.1822 -0.1824 -0.1724
 3502TIP3    H127078   5.227   1.249   1.896  0.5033 -4.0957  2.0030
 3502TIP3    H227079   5.089   1.263   1.955  0.0883 -0.1362  0.3799
 3503TIP3   OH227080   1.651   1.255   6.345  0.6005  0.0577 -0.4408
 3503TIP3    H127081   1.690   1.330   6.301 -0.4348 -0.0368 -1.5881
 3503TIP3    H227082   1.557   1.273   6.343  0.3742 -1.0369 -0.2992
 3504TIP3   OH227083   3.529   0.409   0.734  0.6106  0.2775 -0.2452
 3504TIP3    H127084   3.589   0.435   0.664 -0.3612 -1.1661 -1.7103
 3504TIP3    H227085   3.447   0.389   0.689 -0.0729 -0.6646  1.3181
 3505TIP3   OH227086   0.966   0.240   0.408 -0.0693 -0.3462  0.5539
 3505TIP3    H127087   1.026   0.204   0.474  1.3998 -0.2085 -0.6500
 3505TIP3    H227088   0.995   0.330   0.397  1.4032 -1.0468 -2.0546
 3506TIP3   OH227089   0.243   3.222   0.233  0.4135  0.4721 -0.4957
 3506TIP3    H127090   0.215   3.132   0.221  1.0139  0.4934 -2.3317
 3506TIP3    H227091   0.203   3.270   0.160  0.6931  1.5430  0.0295
 3507TIP3   OH227092   0.315   1.809   7.550  0.3563 -0.5450  0.7402
 3507TIP3    H127093   0.240   1.850   7.594  1.0226  0.6344  0.8143
 3507TIP3    H227094   0.332   1.730   7.601 -0.7753 -0.7795  0.7783
 3508TIP3   OH227095   4.617   0.127   7.444  0.2480  0.2636  0.3844
 3508TIP3    H127096   4.630   0.131   7.349 -3.5024  1.7131 -0.2753
 3508TIP3    H227097   4.575   0.042   7.459 -0.9424  0.8201  0.3586
 3509TIP3   OH227098   0.228   3.129   7.362  0.0071 -0.4129  0.3232
 3509TIP3    H127099   0.296   3.068   7.334  0.6111 -0.3036  1.4754
 3509TIP3    H227100   0.208   3.103   7.452  0.8663  1.5544  1.1536
 3510TIP3   OH227101   0.132   3.162   1.719  0.0827  0.0558 -0.1085
 3510TIP3    H127102   0.128   3.217   1.641  0.2468 -0.8607 -0.7855
 3510TIP3    H227103   0.044   3.127   1.729 -1.0090  3.0364  2.3249
 3511TIP3   OH227104   1.560   0.889   1.032  0.3304  0.1855  0.6993
 3511TIP3    H127105   1.506   0.828   0.981 -0.6820  0.8786  0.9225
 3511TIP3    H227106   1.506   0.967   1.042 -0.0402 -0.3339  3.8682
 3512TIP3   OH227107   3.060   4.082   8.049  0.1570  0.5040 -0.1427
 3512TIP3    H127108   2.982   4.092   8.103 -1.0633  1.8094 -2.0035
 3512TIP3    H227109   3.047   3.998   8.004  1.3400 -0.7535  1.7305
 3513TIP3   OH227110   0.248   4.607   3.141  0.7190 -1.0068  0.1155
 3513TIP3    H127111   0.243   4.609   3.236  0.3971  1.8741  0.1058
 3513TIP3    H227112   0.321   4.665   3.119  0.6019 -1.3809 -1.4159
 3514TIP3   OH227113   1.723   0.223   3.726  0.5101  0.0040  0.4506
 3514TIP3    H127114   1.717   0.314   3.697 -1.9262  0.5367  2.3408
 3514TIP3    H227115   1.674   0.173   3.661  0.1285  0.3435  0.4742
 3515TIP3   OH227116   3.482   1.014   0.267  0.0159 -0.4917  0.3749
 3515TIP3    H127117   3.407   0.977   0.312  0.5075  0.2312  1.8503
 3515TIP3    H227118   3.558   0.974   0.309  0.4953  0.0921  0.0890
 3516TIP3   OH227119   5.194   3.578   0.697 -0.5104  0.1288  0.3742
 3516TIP3    H127120   5.232   3.577   0.609  1.3102  0.2359  1.1064
 3516TIP3    H227121   5.186   3.486   0.721 -1.0062  0.0996  0.1185
 3517TIP3   OH227122   1.616   4.890   3.111  0.0096  0.0147  0.0151
 3517TIP3    H127123   1.639   4.979   3.085 -1.4622  0.6341  0.7497
 3517TIP3    H227124   1.582   4.898   3.200 -2.5586 -0.8681 -0.8084
 3518TIP3   OH227125   3.577   0.641   8.732 -0.2428 -0.5819  0.1198
 3518TIP3    H127126   3.543   0.552   8.737  0.0800 -0.6243  2.5659
 3518TIP3    H227127   3.622   0.655   8.815  1.7436  1.0799 -1.1353
 3519TIP3   OH227128   2.139   4.557   0.759  0.7631  0.0127 -0.0538
 3519TIP3    H127129   2.184   4.499   0.821  0.8753  1.2151  1.0306
 3519TIP3    H227130   2.159   4.520   0.673  2.9019 -0.1386  0.4565
 3520TIP3   OH227131   6.389   5.272   0.634 -0.2540 -0.0448  0.5763
 3520TIP3    H127132   6.471   5.264   0.683 -1.1858 -0.5719  2.1401
 3520TIP3    H227133   6.347   5.350   0.671  0.3957  1.4505 -1.6292
 3521TIP3   OH227134   0.321   1.593   0.845  0.0813 -0.3669 -0.0415
 3521TIP3    H127135   0.328   1.688   0.830 -1.1648 -0.3672 -0.7731
 3521TIP3    H227136   0.351   1.581   0.935  0.0479  0.7561  0.1391
 3522TIP3   OH227137   3.901   4.650   8.305  0.0023  0.6309 -0.5654
 3522TIP3    H127138   3.927   4.740   8.289 -0.6907  0.8728 -0.3632
 3522TIP3    H227139   3.972   4.597   8.267  1.4656  1.2621  1.1716
 3523TIP3   OH227140   2.451   3.299   7.595 -0.4206  0.5839  0.6671
 3523TIP3    H127141   2.506   3.344   7.531 -0.6108  2.6100  1.8345
 3523TIP3    H227142   2.478   3.335   7.679 -1.7890 -0.2695  1.5109
 3524TIP3   OH227143   0.295   4.212   6.767  0.3071  0.2405  0.2198
 3524TIP3    H127144   0.214   4.164   6.783  1.1162 -0.7508  1.4671
 3524TIP3    H227145   0.298   4.224   6.672 -1.0663 -0.1024  0.1224
 3525TIP3   OH227146   3.365   0.867   7.373 -1.1467  0.2188 -0.0230
 3525TIP3    H127147   3.452   0.831   7.388 -1.0588  0.1559 -0.6344
 3525TIP3    H227148   3.368   0.956   7.406 -0.5718  0.5191 -0.8513
 3526TIP3   OH227149   6.099   0.801   0.341  0.5651  1.1879  0.5493
 3526TIP3    H127150   6.030   0.824   0.278  0.7080 -1.6017 -0.7596
 3526TIP3    H227151   6.179   0.839   0.303  0.9144 -1.6024 -1.9175
 3527TIP3   OH227152   2.204   0.470   0.495 -0.0390  0.4412  0.0398
 3527TIP3    H127153   2.217   0.387   0.541  1.1538  0.5798 -0.0116
 3527TIP3    H227154   2.176   0.531   0.563  1.3171  0.5441  0.5360
 3528TIP3   OH227155   4.284   5.954   0.694  0.1373  0.8003 -0.1510
 3528TIP3    H127156   4.375   5.925   0.701  0.6202  2.3116  0.1028
 3528TIP3    H227157   4.250   5.947   0.783 -0.0938 -0.0154 -0.2927
 3529TIP3   OH227158   5.431   0.100   2.785  0.3278  0.1725  0.3297
 3529TIP3    H127159   5.477   0.035   2.732 -1.8628  0.2404 -1.8147
 3529TIP3    H227160   5.434   0.180   2.732  1.5422  1.4561  2.1860
 3530TIP3   OH227161   0.890   2.682   1.226  0.2866  0.1914 -0.1573
 3530TIP3    H127162   0.904   2.620   1.154  0.8674  1.5084 -1.2214
 3530TIP3    H227163   0.814   2.734   1.199 -0.3987 -0.2453  0.8741
 3531TIP3   OH227164   1.670   4.071   0.994 -0.1435  1.0526 -0.5626
 3531TIP3    H127165   1.667   3.976   0.999 -3.2495  1.1470  2.1388
 3531TIP3    H227166   1.586   4.096   0.956  1.0873  2.7693 -2.3789
 3532TIP3   OH227167   4.326   6.098   8.560 -0.2452  0.1474 -0.5147
 3532TIP3    H127168   4.364   6.048   8.488  0.6542  1.7781 -1.2181
 3532TIP3    H227169   4.363   6.186   8.552 -0.0127  0.3751  2.0196
 3533TIP3   OH227170   1.756   1.987   0.259  0.0733  0.5065  0.1655
 3533TIP3    H127171   1.842   2.018   0.232  0.4779  1.5943  2.4565
 3533TIP3    H227172   1.701   1.998   0.182  1.9764 -0.2360 -1.3487
 3534TIP3   OH227173   3.859   6.041   7.912  0.1250  0.7088 -0.3189
 3534TIP3    H127174   3.922   6.074   7.848 -0.9394 -0.0837 -1.8428
 3534TIP3    H227175   3.913   5.996   7.977  1.2099  0.9929 -0.9911
 3535TIP3   OH227176   1.829   5.180   0.819 -0.2448  0.1249  0.5162
 3535TIP3    H127177   1.873   5.252   0.864  0.0403 -0.1256  0.6446
 3535TIP3    H227178   1.769   5.143   0.885 -1.1905  0.9228  0.1217
 3536TIP3   OH227179   3.060   0.142   7.345 -0.6283  0.6787  0.4469
 3536TIP3    H127180   3.133   0.156   7.406  0.7387  0.9433 -1.1720
 3536TIP3    H227181   3.004   0.219   7.355 -0.1705  0.9378  1.0307
 3537TIP3   OH227182   0.815   3.209   9.083  0.4106 -0.1464  0.3108
 3537TIP3    H127183   0.749   3.277   9.096  0.3457  0.1319 -1.2861
 3537TIP3    H227184   0.898   3.252   9.105  0.2335  0.0096  0.6881
 3538TIP3   OH227185   0.029   0.496   7.754 -0.0196 -0.5192 -0.6480
 3538TIP3    H127186   0.030   0.483   7.659  1.7487 -0.2448 -0.6968
 3538TIP3    H227187  -0.047   0.447   7.784  0.1031 -1.6546 -2.0761
 3539TIP3   OH227188   4.188   2.955   9.350 -0.6546  0.5015  0.0540
 3539TIP3    H127189   4.136   2.877   9.370 -2.6857  1.4409 -1.2567
 3539TIP3    H227190   4.158   3.020   9.413 -0.1338  0.7018  0.0975
 3540TIP3   OH227191   1.835   0.968   7.319 -0.9207  0.0933  0.0435
 3540TIP3    H127192   1.865   1.058   7.309  0.4254 -0.1779  1.3223
 3540TIP3    H227193   1.821   0.937   7.230  1.6431  0.5956 -0.5991
 3541TIP3   OH227194   2.863   4.811   0.391  0.5755  0.4561  0.2103
 3541TIP3    H127195   2.942   4.779   0.348 -0.3778 -0.4432 -0.9882
 3541TIP3    H227196   2.794   4.752   0.360 -0.3356  0.3137  2.3542
 3542TIP3   OH227197   4.454   2.212   0.483 -0.1650 -0.7704 -0.0001
 3542TIP3    H127198   4.424   2.303   0.487 -1.3739 -1.1965  1.1652
 3542TIP3    H227199   4.410   2.169   0.555  1.6648 -1.9427  0.4797
 3543TIP3   OH227200   5.164   1.136   8.684  0.0334 -0.6973  0.0353
 3543TIP3    H127201   5.117   1.198   8.740  1.8280 -0.5419  1.4365
 3543TIP3    H227202   5.143   1.050   8.721  0.0549 -0.7018  0.0373
 3544TIP3   OH227203   2.399   4.320   7.552 -0.2783 -0.3444 -0.2723
 3544TIP3    H127204   2.440   4.339   7.468  0.3786  1.8759  0.4781
 3544TIP3    H227205   2.460   4.355   7.617 -0.7447 -2.0525  1.1689
 3545TIP3   OH227206   0.113   4.714   1.523 -0.4494  0.1448 -0.3059
 3545TIP3    H127207   0.058   4.789   1.502  0.4559  1.0813  0.5140
 3545TIP3    H227208   0.074   4.678   1.603 -0.6728 -0.0459 -0.4987
 3546TIP3   OH227209   2.451   4.393   2.034 -0.2047  0.1906 -0.2121
 3546TIP3    H127210   2.444   4.465   1.971 -1.1595  0.3774  0.0775
 3546TIP3    H227211   2.545   4.377   2.043  0.2647  3.2006  1.6922
 3547TIP3   OH227212   0.963   0.147   2.719 -0.0034  0.3318  0.5440
 3547TIP3    H127213   1.020   0.075   2.690  1.2186  0.6224  2.0632
 3547TIP3    H227214   0.908   0.107   2.787 -0.5637  0.4309  0.1567
 3548TIP3   OH227215   5.513   6.122   1.583 -0.0105  0.1984 -0.0875
 3548TIP3    H127216   5.567   6.096   1.658  0.1164  0.1789 -0.1856
 3548TIP3    H227217   5.423   6.108   1.612  0.0683 -2.3262 -0.8319
 3549TIP3   OH227218   6.100   6.126   9.145  0.1110  0.0464 -0.8979
 3549TIP3    H127219   6.154   6.054   9.112 -0.5286 -1.3140  0.8115
 3549TIP3    H227220   6.158   6.202   9.146  1.5527 -1.0137 -0.5133
 3550TIP3   OH227221   5.700   6.160   2.185  0.0760  0.1253 -0.3201
 3550TIP3    H127222   5.760   6.175   2.258  1.1465 -0.9222 -0.9440
 3550TIP3    H227223   5.726   6.223   2.118 -1.0292  1.2155  0.2472
 3551TIP3   OH227224   5.578   1.448   7.377 -0.2334  1.2011  0.1815
 3551TIP3    H127225   5.487   1.460   7.404 -0.1802 -0.4776  1.2841
 3551TIP3    H227226   5.629   1.466   7.456  0.1927 -0.1866  0.2599
 3552TIP3   OH227227   3.407   5.337   8.662  0.0303 -0.4591  0.1872
 3552TIP3    H127228   3.498   5.315   8.680  0.3776  0.9043  0.1810
 3552TIP3    H227229   3.361   5.253   8.668  0.9400 -0.8693  2.3091
 3553TIP3   OH227230   2.103   3.567   8.916 -0.0340  0.4842 -0.4163
 3553TIP3    H127231   2.122   3.576   8.823 -2.6837  0.2002 -1.0643
 3553TIP3    H227232   2.182   3.527   8.953  1.9887  2.6127 -2.0555
 3554TIP3   OH227233   6.086   0.057   2.164 -0.8749  0.0692 -0.4894
 3554TIP3    H127234   6.051   0.083   2.078  2.8197  2.2923 -1.5210
 3554TIP3    H227235   6.157  -0.003   2.143 -1.1511 -0.8794  1.1956
 3555TIP3   OH227236   5.525   2.391   1.563  0.5090  0.1498 -0.3906
 3555TIP3    H127237   5.576   2.471   1.580  0.1868  0.4626 -0.8758
 3555TIP3    H227238   5.473   2.412   1.485  0.3595 -0.5071 -0.4695
 3556TIP3   OH227239   4.553   1.259   2.005  0.2402 -0.1931  0.0329
 3556TIP3    H127240   4.510   1.248   2.090  1.7540 -1.9352  0.6356
 3556TIP3    H227241   4.625   1.320   2.023  2.4267 -2.7761  0.8538
 3557TIP3   OH227242   1.294   3.538   1.271 -0.1979 -0.4658 -0.2641
 3557TIP3    H127243   1.330   3.625   1.291 -1.3956  0.0297 -0.1700
 3557TIP3    H227244   1.371   3.482   1.262  0.5632  0.0846  1.9926
 3558TIP3   OH227245   4.774   6.327   7.614  0.0610  0.2066 -0.1478
 3558TIP3    H127246   4.805   6.310   7.525 -0.2843 -0.9604 -0.0571
 3558TIP3    H227247   4.853   6.336   7.666  0.2604  0.5675 -0.5084
 3559TIP3   OH227248   1.233   1.589   0.263 -0.1734 -0.6750  1.0327
 3559TIP3    H127249   1.193   1.518   0.214  0.3867  0.2691 -0.8777
 3559TIP3    H227250   1.161   1.628   0.313 -1.7168  0.8577 -2.1448
 3560TIP3   OH227251   5.706   3.914   2.372 -0.3805  0.3794 -0.1067
 3560TIP3    H127252   5.683   3.862   2.294  0.6990 -0.3718  0.0614
 3560TIP3    H227253   5.676   3.861   2.445  0.5362  0.0783  0.0586
 3561TIP3   OH227254   5.357   0.402   9.158  0.3166  0.1180 -0.3453
 3561TIP3    H127255   5.404   0.474   9.115  1.4722 -1.0006 -1.0032
 3561TIP3    H227256   5.266   0.432   9.162  0.6517  1.3300 -1.2328
 3562TIP3   OH227257   2.450   4.684   1.234  0.4208  0.1388 -0.7405
 3562TIP3    H127258   2.408   4.640   1.308  0.4284 -1.1722 -1.4842
 3562TIP3    H227259   2.535   4.713   1.268  0.9112 -1.4520 -0.5033
 3563TIP3   OH227260   3.700   3.506   1.774 -0.2643 -0.0837  0.2773
 3563TIP3    H127261   3.714   3.591   1.731 -0.3960 -0.2996 -0.2029
 3563TIP3    H227262   3.716   3.523   1.866  1.5452  0.0495 -0.0237
 3564TIP3   OH227263   5.356   6.159   7.430  0.2529  0.5419 -0.4750
 3564TIP3    H127264   5.345   6.212   7.352 -2.1087  1.6085  0.4703
 3564TIP3    H227265   5.441   6.185   7.466  0.6296  1.2052 -1.7863
 3565TIP3   OH227266   4.374   1.170   1.565 -0.1840  0.0281  0.0709
 3565TIP3    H127267   4.287   1.152   1.600  0.8974  1.1541  3.7434
 3565TIP3    H227268   4.434   1.157   1.639  2.6655  0.4574 -1.9689
 3566TIP3   OH227269   1.825   1.916   9.022  0.0173  0.1970  0.2672
 3566TIP3    H127270   1.890   1.847   9.009  0.1815  0.5792 -1.0280
 3566TIP3    H227271   1.789   1.932   8.935 -0.2622  1.5021  0.6036
 3567TIP3   OH227272   1.881   0.629   8.759  0.2642  0.0969  0.3555
 3567TIP3    H127273   1.853   0.569   8.690 -0.5703  0.9764 -0.1090
 3567TIP3    H227274   1.854   0.715   8.727 -1.3933  0.3986  2.3622
 3568TIP3   OH227275   5.736   0.609   8.731  0.8408  0.6499  0.1056
 3568TIP3    H127276   5.806   0.672   8.718 -0.9709  2.7125 -0.2796
 3568TIP3    H227277   5.701   0.629   8.818  0.3210  0.1056  0.0298
 3569TIP3   OH227278   5.736   2.997   7.512  0.5759  0.4410  0.1926
 3569TIP3    H127279   5.743   3.082   7.469  1.3041 -0.0154 -0.6191
 3569TIP3    H227280   5.643   2.990   7.534 -0.5476 -0.4777 -3.8981
 3570TIP3   OH227281   0.266   0.325   2.112 -0.0660  0.0449 -0.3961
 3570TIP3    H127282   0.354   0.358   2.094 -0.2029  0.1112 -0.9617
 3570TIP3    H227283   0.263   0.315   2.207  1.4832 -2.5380 -0.5407
 3571TIP3   OH227284   2.630   1.818   8.711 -0.5837 -0.1153 -0.0626
 3571TIP3    H127285   2.661   1.861   8.790  0.7752 -0.7701 -0.2178
 3571TIP3    H227286   2.552   1.868   8.685 -0.5112  0.6612  1.1600
 3572TIP3   OH227287   1.303   6.243   8.593 -0.6528  0.0055 -0.0257
 3572TIP3    H127288   1.327   6.271   8.681  0.5906 -0.4358 -0.2034
 3572TIP3    H227289   1.230   6.300   8.568 -1.7013 -0.5079  1.6564
 3573TIP3   OH227290   4.089   0.623   7.987  0.1527 -0.0861  0.1120
 3573TIP3    H127291   4.087   0.556   8.056  0.5306 -0.5774 -0.3427
 3573TIP3    H227292   4.164   0.598   7.932 -1.6515 -1.2369 -1.9733
 3574TIP3   OH227293   5.804   2.804   7.207 -0.1375  0.4393 -0.0271
 3574TIP3    H127294   5.745   2.833   7.277  0.1430  0.3572  0.2455
 3574TIP3    H227295   5.873   2.869   7.205  0.4646 -0.1637  0.5483
 3575TIP3   OH227296   5.504   4.722   7.451 -0.4835 -0.1993 -0.0544
 3575TIP3    H127297   5.526   4.749   7.540 -0.8710 -0.6641  0.1909
 3575TIP3    H227298   5.552   4.782   7.394 -0.3107  0.1610  0.4704
 3576TIP3   OH227299   0.819   5.569   8.349 -0.2634 -0.1225 -0.0558
 3576TIP3    H127300   0.757   5.539   8.282  1.3943 -1.1932 -1.2082
 3576TIP3    H227301   0.859   5.488   8.381 -0.8442  0.3907  2.1216
 3577TIP3   OH227302   0.039   0.848   6.469 -1.1500  0.1430  0.3598
 3577TIP3    H127303   0.068   0.935   6.441 -0.0584  0.0688  1.2109
 3577TIP3    H227304  -0.007   0.864   6.552 -1.3876 -0.0328  0.2622
 3578TIP3   OH227305   3.531   3.030   2.848  0.1594 -0.4752 -0.8076
 3578TIP3    H127306   3.589   3.100   2.878 -1.1300 -0.3304  1.6096
 3578TIP3    H227307   3.564   2.951   2.891 -1.8467 -0.2298  1.4211
 3579TIP3   OH227308   3.904   1.167   2.062 -0.3970  0.4141 -0.3652
 3579TIP3    H127309   3.810   1.151   2.069 -0.3600 -0.3351 -1.4361
 3579TIP3    H227310   3.944   1.081   2.077  0.1630  0.8565  0.7698
 3580TIP3   OH227311   6.389   1.416   7.147  0.3862 -0.2724 -0.4251
 3580TIP3    H127312   6.378   1.333   7.194 -0.3153  0.3858  0.6442
 3580TIP3    H227313   6.318   1.471   7.181  1.4156  1.0782 -0.3981
 3581TIP3   OH227314   3.599  -0.005   8.572 -0.7285  0.1072  0.4685
 3581TIP3    H127315   3.655   0.072   8.569  0.3261 -0.6362  0.7613
 3581TIP3    H227316   3.583  -0.027   8.480 -1.9742  1.3189  0.3585
 3582TIP3   OH227317   4.886   5.162   7.663 -0.1398 -0.6400  0.1550
 3582TIP3    H127318   4.945   5.154   7.588 -1.3056 -0.2792 -0.8462
 3582TIP3    H227319   4.922   5.102   7.729  1.3211 -0.4182 -0.4077
 3583TIP3   OH227320   2.170   5.930   8.357 -0.0555 -0.2748 -0.4638
 3583TIP3    H127321   2.232   5.875   8.310 -0.5272 -0.9895 -0.2758
 3583TIP3    H227322   2.218   6.010   8.377  0.4522 -0.3695 -1.2813
 3584TIP3   OH227323   3.605   0.801   1.610  0.1621  0.0075 -0.2033
 3584TIP3    H127324   3.676   0.844   1.657 -0.2698  1.1364 -0.5432
 3584TIP3    H227325   3.645   0.725   1.568  1.8539  2.0919 -2.6824
 3585TIP3   OH227326   3.287   0.417   7.371  0.4902 -0.3662 -0.0510
 3585TIP3    H127327   3.261   0.486   7.310 -1.6386 -1.7258 -0.7958
 3585TIP3    H227328   3.209   0.400   7.423  1.5031 -1.0435  1.3196
 3586TIP3   OH227329   3.322   4.658   0.961  0.2789 -0.4373 -0.1503
 3586TIP3    H127330   3.264   4.593   1.001 -0.3782  1.1288  1.5822
 3586TIP3    H227331   3.398   4.662   1.019  0.2176  0.4757 -0.1216
 3587TIP3   OH227332   5.268   4.475   1.530 -0.3585  0.3515  0.6366
 3587TIP3    H127333   5.317   4.488   1.448 -0.4224  0.7549  0.6602
 3587TIP3    H227334   5.184   4.519   1.515 -0.3079  0.5674  0.9798
 3588TIP3   OH227335   1.357   0.910   0.166 -0.1917  0.2369 -0.4293
 3588TIP3    H127336   1.290   0.977   0.153 -0.7114 -0.3101 -0.5637
 3588TIP3    H227337   1.321   0.831   0.127  0.1209 -0.3126  0.3683
 3589TIP3   OH227338   4.490   5.034   8.412  0.1175 -0.0337  0.6456
 3589TIP3    H127339   4.441   4.969   8.362 -0.1420 -0.8578  1.9216
 3589TIP3    H227340   4.566   4.987   8.446  1.4480  1.0412 -0.6847
 3590TIP3   OH227341   1.170   3.926   1.400  0.3701  0.3398  0.8339
 3590TIP3    H127342   1.131   3.966   1.322  1.9568  1.1435  0.4204
 3590TIP3    H227343   1.230   3.860   1.366 -1.2994 -1.6333  1.4889
 3591TIP3   OH227344   4.561   3.865   3.087 -0.0224 -0.0246  0.1777
 3591TIP3    H127345   4.481   3.815   3.069 -1.0965  1.7338 -0.2522
 3591TIP3    H227346   4.551   3.894   3.178 -0.8050  1.7257 -0.4322
 3592TIP3   OH227347   2.388   6.085   3.184 -1.2012 -1.2962  0.5176
 3592TIP3    H127348   2.469   6.035   3.191 -0.5426 -0.2389  0.7086
 3592TIP3    H227349   2.334   6.035   3.123  0.3611 -1.0435 -1.1632
 3593TIP3   OH227350   4.767   0.539   7.389  0.2955  0.3659  0.2623
 3593TIP3    H127351   4.800   0.462   7.344 -0.3041  0.3444 -0.1447
 3593TIP3    H227352   4.797   0.529   7.480  0.0122 -0.4639  0.2708
 3594TIP3   OH227353   6.301   4.613   9.298 -0.3662 -0.4437 -0.1266
 3594TIP3    H127354   6.256   4.583   9.219  4.2135 -1.8271 -2.5618
 3594TIP3    H227355   6.327   4.703   9.277  1.5032 -1.0556 -0.7088
 3595TIP3   OH227356   4.792   6.328   0.995  0.0930  0.9315 -0.0410
 3595TIP3    H127357   4.704   6.367   0.994 -0.3458  0.2272  3.1001
 3595TIP3    H227358   4.849   6.401   1.020 -0.0907  0.6593  1.2233
 3596TIP3   OH227359   1.246   1.775   8.720  0.2223 -0.5306 -0.1817
 3596TIP3    H127360   1.216   1.730   8.641  0.8514 -1.1547 -0.0712
 3596TIP3    H227361   1.167   1.786   8.773 -0.5679  1.5329 -1.6683
 3597TIP3   OH227362   3.329   4.329   7.839 -0.3406 -0.0390  0.5331
 3597TIP3    H127363   3.372   4.415   7.832 -0.5482 -0.0153 -0.8471
 3597TIP3    H227364   3.248   4.339   7.788 -0.4164 -1.0154  0.4426
 3598TIP3   OH227365   2.099   0.144   8.975 -0.0106 -0.3616  0.5808
 3598TIP3    H127366   2.045   0.191   8.911  2.0666  1.2826 -0.0670
 3598TIP3    H227367   2.148   0.081   8.923  0.3941 -0.2292  0.7965
 3599TIP3   OH227368   2.751   1.824   1.517 -0.1987 -0.5893  0.0845
 3599TIP3    H127369   2.665   1.861   1.536  0.0383 -0.0112  0.0470
 3599TIP3    H227370   2.761   1.753   1.581 -1.0150 -1.1584 -0.4016
 3600TIP3   OH227371   0.293   3.741   7.728 -0.8242 -0.6236 -0.2965
 3600TIP3    H127372   0.325   3.660   7.769 -1.4391 -0.9760 -0.4947
 3600TIP3    H227373   0.210   3.758   7.772 -1.9210 -1.4776 -1.9354
 3601TIP3   OH227374   0.346   3.062   9.264  0.0795 -0.2593 -0.0001
 3601TIP3    H127375   0.377   2.994   9.323  0.1724 -0.7288 -0.5799
 3601TIP3    H227376   0.364   3.144   9.310 -0.5330 -0.6444  0.9292
 3602TIP3   OH227377   0.426   4.920   7.407 -0.5017  0.6695  0.0435
 3602TIP3    H127378   0.516   4.918   7.373 -0.5403  1.5426 -0.1328
 3602TIP3    H227379   0.409   4.830   7.434  1.0761  0.8264  1.8010
 3603TIP3   OH227380   4.651   4.078   7.872  0.5343 -0.5281 -0.0028
 3603TIP3    H127381   4.632   4.153   7.816  0.7558 -0.6421 -0.2293
 3603TIP3    H227382   4.601   4.095   7.952 -0.7741 -0.9557 -0.6844
 3604TIP3   OH227383   5.638   3.235   0.523 -0.0729  0.2072 -0.0745
 3604TIP3    H127384   5.700   3.198   0.585  2.5846  2.3313 -1.2296
 3604TIP3    H227385   5.663   3.328   0.517 -4.1186  1.5125  0.1608
 3605TIP3   OH227386   5.104   1.480   8.727  0.0926  0.1681 -0.1216
 3605TIP3    H127387   5.020   1.514   8.698 -0.5552 -1.8291 -0.7365
 3605TIP3    H227388   5.148   1.451   8.647  0.4719 -0.6789  0.3690
 3606TIP3   OH227389   3.136   1.999   1.281  0.2611 -0.2087 -0.2733
 3606TIP3    H127390   3.098   1.916   1.312 -0.5382  0.2658  0.0577
 3606TIP3    H227391   3.177   2.037   1.359 -0.2221  0.1622 -0.1990
 3607TIP3   OH227392   5.735   5.089   8.864  0.5258 -0.1629 -0.4482
 3607TIP3    H127393   5.643   5.063   8.871  0.6676 -1.0959 -1.8729
 3607TIP3    H227394   5.742   5.133   8.779  1.4509 -0.2936 -0.4512
 3608TIP3   OH227395   3.861   6.362   9.014 -0.0092 -0.3623 -0.1947
 3608TIP3    H127396   3.854   6.276   9.055 -0.9489  0.4476  1.4441
 3608TIP3    H227397   3.879   6.422   9.087  1.5121  0.7365 -1.4084
 3609TIP3   OH227398   6.082   0.334   9.080 -0.4482 -0.2922  0.0566
 3609TIP3    H127399   6.060   0.417   9.037 -2.4949 -1.0221 -0.4063
 3609TIP3    H227400   6.135   0.287   9.015  0.7658  0.6439  0.3423
 3610TIP3   OH227401   2.786   0.920   3.358  0.2247 -0.1048 -0.3826
 3610TIP3    H127402   2.799   1.008   3.393  3.4342 -0.0813 -1.3121
 3610TIP3    H227403   2.755   0.934   3.269  0.4531  0.1066 -0.4312
 3611TIP3   OH227404   1.494   3.134   0.159  0.1784  0.6716 -0.1626
 3611TIP3    H127405   1.479   3.040   0.160  3.0635  0.1091 -1.6683
 3611TIP3    H227406   1.483   3.160   0.068  2.2381  1.2188 -0.3031
 3612TIP3   OH227407   0.251   1.175   7.383  0.7309 -1.2498 -0.2850
 3612TIP3    H127408   0.299   1.231   7.322  0.9853 -1.4585 -0.2784
 3612TIP3    H227409   0.205   1.112   7.327 -1.0085  0.0784 -0.3969
 3613TIP3   OH227410   6.037   6.239   0.606 -0.0738  0.1220 -0.3264
 3613TIP3    H127411   6.028   6.152   0.645  1.0624  0.3151  0.3915
 3613TIP3    H227412   5.947   6.267   0.589 -0.6561  0.1687  2.4435
 3614TIP3   OH227413   1.684   4.016   2.245 -0.3970 -0.0898  0.0959
 3614TIP3    H127414   1.763   3.962   2.238 -0.4026 -0.0372 -0.4172
 3614TIP3    H227415   1.613   3.957   2.221 -0.3814  0.1957 -0.6795
 3615TIP3   OH227416   0.406   3.750   6.512  0.8806  0.4891 -0.7730
 3615TIP3    H127417   0.353   3.771   6.435 -0.5446 -1.5932 -0.4564
 3615TIP3    H227418   0.483   3.706   6.477  0.4215 -0.1066 -1.0571
 3616TIP3   OH227419   3.272   3.222   0.571  0.0460  0.2814  0.1295
 3616TIP3    H127420   3.348   3.167   0.549 -0.4895 -0.7463  0.7432
 3616TIP3    H227421   3.266   3.284   0.498  0.8377 -0.3079 -0.4664
 3617TIP3   OH227422   5.446   5.250   9.021  0.0589 -0.3801  0.3468
 3617TIP3    H127423   5.536   5.277   9.041  0.0978  2.4415 -2.8357
 3617TIP3    H227424   5.397   5.332   9.018 -1.3101 -1.1433 -3.5622
 3618TIP3   OH227425   1.423   3.156   2.637 -0.5055  0.0984  0.1227
 3618TIP3    H127426   1.401   3.073   2.595 -0.5385  0.3997 -0.4663
 3618TIP3    H227427   1.493   3.135   2.698 -0.6434 -0.3964  0.1084
 3619TIP3   OH227428   1.611   1.955   6.105 -0.0404 -0.2434 -0.6989
 3619TIP3    H127429   1.558   1.903   6.045 -1.6190 -0.2992  0.6850
 3619TIP3    H227430   1.549   2.015   6.146  1.1697  0.4374  0.1844
 3620TIP3   OH227431   0.667   1.109   0.358  0.9707  0.7327  0.5980
 3620TIP3    H127432   0.714   1.135   0.437  3.3460 -3.1813  0.7422
 3620TIP3    H227433   0.578   1.091   0.388  1.5213  0.4197  2.1377
 3621TIP3   OH227434   4.566   2.211   6.562 -0.2841 -0.0804 -0.4698
 3621TIP3    H127435   4.638   2.240   6.617 -0.4731 -1.0593  0.3446
 3621TIP3    H227436   4.494   2.271   6.582  0.4214  1.1992 -1.6507
 3622TIP3   OH227437   3.618   1.579   6.672  0.7128  0.1640  0.3662
 3622TIP3    H127438   3.696   1.550   6.625  0.7984 -1.3545  1.3815
 3622TIP3    H227439   3.559   1.504   6.670 -0.6310  1.1949 -0.1353
 3623TIP3   OH227440   5.563   5.927   8.566  0.0421  0.0714 -0.1069
 3623TIP3    H127441   5.597   5.875   8.639 -0.2039 -0.8014 -0.6034
 3623TIP3    H227442   5.472   5.946   8.590  0.7128  2.1749  1.0942
 3624TIP3   OH227443   0.879   2.231   7.028 -0.4852  0.0856  0.2291
 3624TIP3    H127444   0.912   2.257   6.942 -0.2175  0.0978  0.3362
 3624TIP3    H227445   0.865   2.136   7.020 -1.0105  0.1797 -0.0099
 3625TIP3   OH227446   0.184   2.287   8.804  0.6284  0.2896 -0.0342
 3625TIP3    H127447   0.128   2.270   8.880  0.3103  0.8825 -0.1276
 3625TIP3    H227448   0.231   2.205   8.790  2.0119  0.6686  1.8933
 3626TIP3   OH227449   4.180   1.891   7.539 -0.3601  0.1446 -0.0911
 3626TIP3    H127450   4.113   1.844   7.489 -1.5949 -0.0419  1.6772
 3626TIP3    H227451   4.204   1.831   7.609  2.1952 -0.0713 -1.0248
 3627TIP3   OH227452   1.064   0.207   9.329  0.2694 -0.3199  0.1341
 3627TIP3    H127453   0.984   0.188   9.279  0.2231  1.7273 -0.6628
 3627TIP3    H227454   1.042   0.285   9.380  1.5174 -0.2049  0.5247
 3628TIP3   OH227455   1.276   1.378   1.538  0.1599  0.0925  0.0848
 3628TIP3    H127456   1.328   1.431   1.477 -0.8508 -0.4176 -1.2769
 3628TIP3    H227457   1.322   1.385   1.621  1.3133  1.2340 -0.6113
 3629TIP3   OH227458   6.469   1.210   9.063 -0.0107 -0.1277  0.2718
 3629TIP3    H127459   6.446   1.195   8.971  2.2470 -0.8697 -0.2276
 3629TIP3    H227460   6.389   1.189   9.111 -0.8811 -0.9151 -1.4365
 3630TIP3   OH227461   1.590   2.807   8.881  0.0947  0.0286  0.4170
 3630TIP3    H127462   1.564   2.835   8.793 -0.4134  0.7486  0.7799
 3630TIP3    H227463   1.685   2.822   8.883  0.0704  0.2595  0.0716
 3631TIP3   OH227464   1.945   5.176   7.680  0.7924 -0.6634  0.3123
 3631TIP3    H127465   1.927   5.095   7.633 -0.0790  0.9839 -2.4293
 3631TIP3    H227466   1.872   5.184   7.742 -0.3400 -0.9694 -0.9250
 3632TIP3   OH227467   5.296   4.971   6.851 -0.3925  0.0647  0.4553
 3632TIP3    H127468   5.321   4.893   6.802 -0.9945 -0.5856  1.1584
 3632TIP3    H227469   5.348   5.041   6.812  2.8972 -1.2526  2.0755
 3633TIP3   OH227470   0.918   5.569   2.098  0.1158 -0.5012 -0.0523
 3633TIP3    H127471   0.999   5.577   2.148  0.0046  0.9126 -0.0698
 3633TIP3    H227472   0.896   5.476   2.103  1.0955 -0.6975  0.9531
 3634TIP3   OH227473   5.424   5.252   2.180 -0.3173 -0.2726  0.0378
 3634TIP3    H127474   5.495   5.298   2.136  0.3894  0.7476  2.1160
 3634TIP3    H227475   5.444   5.159   2.168  0.9770  0.0006 -0.0326
 3635TIP3   OH227476   0.515   1.962   1.829  0.1251  0.4165  0.1356
 3635TIP3    H127477   0.582   1.903   1.794  1.0205  0.1134  2.2103
 3635TIP3    H227478   0.554   2.049   1.820 -0.2790  0.5008 -0.9304
 3636TIP3   OH227479   3.587   0.113   2.290  0.1781  0.2467  0.0221
 3636TIP3    H127480   3.549   0.041   2.340  1.7773  0.6847  2.0083
 3636TIP3    H227481   3.661   0.143   2.343  1.6675  1.1221 -2.3844
 3637TIP3   OH227482   3.458   3.295   1.195 -0.3789  0.2893  0.3375
 3637TIP3    H127483   3.471   3.280   1.102  0.0897  0.7805  0.3207
 3637TIP3    H227484   3.463   3.208   1.234 -0.4447  0.0975 -0.0782
 3638TIP3   OH227485   6.364   5.986   1.886  0.7636  0.0051  0.1509
 3638TIP3    H127486   6.438   5.938   1.848  0.9721  1.1514 -0.9697
 3638TIP3    H227487   6.287   5.955   1.838  0.3941 -1.5426  1.6436
 3639TIP3   OH227488   5.935   0.427   1.982 -0.1235  0.0591 -0.1256
 3639TIP3    H127489   5.939   0.353   1.922  1.0042  0.0565 -0.0684
 3639TIP3    H227490   5.973   0.395   2.064  2.3260  1.2358 -0.7165
 3640TIP3   OH227491   2.510   3.846   8.418 -0.0680  0.4656 -0.4875
 3640TIP3    H127492   2.514   3.867   8.511  1.4374 -1.0080 -0.1794
 3640TIP3    H227493   2.423   3.806   8.406  0.8257 -2.1566  0.9789
 3641TIP3   OH227494   1.298   0.348   2.661  0.3527  0.1491 -0.5638
 3641TIP3    H127495   1.227   0.363   2.599  1.7494 -0.3126 -2.3825
 3641TIP3    H227496   1.359   0.420   2.645 -0.8123  2.1610  2.8805
 3642TIP3   OH227497   0.466   5.318   7.588  0.5548  0.1989 -0.4892
 3642TIP3    H127498   0.547   5.289   7.630  0.4062 -0.2967 -0.5456
 3642TIP3    H227499   0.410   5.241   7.587 -0.9960  1.1692  2.0245
 3643TIP3   OH227500   3.420   0.451   6.839 -0.2817  0.5879  0.7541
 3643TIP3    H127501   3.473   0.379   6.803  0.9782  0.4473  2.7283
 3643TIP3    H227502   3.330   0.423   6.827  0.0878  0.0698 -1.2091
 3644TIP3   OH227503   3.197   1.408   7.274  0.3356  0.6510  0.1650
 3644TIP3    H127504   3.113   1.444   7.302 -2.5444 -1.2178 -4.7961
 3644TIP3    H227505   3.207   1.437   7.184  3.8799 -1.2268 -0.2608
 3645TIP3   OH227506   5.358   3.319   0.494  0.5203 -0.3635  0.0920
 3645TIP3    H127507   5.451   3.297   0.491  0.6081  0.0126 -0.1137
 3645TIP3    H227508   5.315   3.251   0.442  0.5566 -1.1018  1.0071
 3646TIP3   OH227509   0.201   5.836   0.228 -0.7828  0.0088  0.0738
 3646TIP3    H127510   0.240   5.921   0.209  0.2873  0.1277  2.4048
 3646TIP3    H227511   0.124   5.832   0.171 -0.0554  1.8702 -1.1666
 3647TIP3   OH227512   0.663   1.857   9.269  0.3982 -0.9932 -0.1182
 3647TIP3    H127513   0.693   1.894   9.186  1.3722 -0.8398  0.2841
 3647TIP3    H227514   0.666   1.762   9.255 -1.2655 -0.9697 -0.8623
 3648TIP3   OH227515   3.000   2.715   8.602 -0.2674  0.6022 -0.4510
 3648TIP3    H127516   2.919   2.717   8.654  0.2141 -0.0736  0.3444
 3648TIP3    H227517   3.011   2.623   8.578  1.7992  0.1009  1.9595
 3649TIP3   OH227518   1.861   0.379   6.708 -0.6381 -0.1935  0.2841
 3649TIP3    H127519   1.792   0.427   6.662  0.5657  1.5471  0.1652
 3649TIP3    H227520   1.915   0.341   6.639 -0.3391  0.1690  0.3146
 3650TIP3   OH227521   2.082   5.049   0.740  0.2577 -0.8642 -0.2196
 3650TIP3    H127522   1.988   5.070   0.745  0.3511 -0.6448  1.0531
 3650TIP3    H227523   2.092   5.004   0.656 -0.1843  3.0051 -2.5740
 3651TIP3   OH227524   6.368   5.980   0.118 -0.1431 -0.0156 -0.5500
 3651TIP3    H127525   6.334   6.010   0.202 -1.0364 -2.9363  0.2230
 3651TIP3    H227526   6.409   6.058   0.080  1.2361  1.1869  3.0127
 3652TIP3   OH227527   5.446   1.700   2.175 -0.4432  0.2768  0.0350
 3652TIP3    H127528   5.502   1.678   2.101 -1.1431 -0.4490 -0.3000
 3652TIP3    H227529   5.434   1.795   2.170 -0.1297  0.2898 -0.5230
 3653TIP3   OH227530   2.817   1.828   8.482 -0.4096  0.3726 -0.3683
 3653TIP3    H127531   2.808   1.898   8.546  0.6058 -0.0988  0.3021
 3653TIP3    H227532   2.730   1.788   8.479 -0.2967 -0.0715  1.2798
 3654TIP3   OH227533   6.382   0.517   8.248 -0.1483  0.2890 -0.6342
 3654TIP3    H127534   6.426   0.589   8.294 -1.1094 -1.4009  3.4104
 3654TIP3    H227535   6.451   0.451   8.236  0.1561  0.8245 -1.9070
 3655TIP3   OH227536   5.012   4.660   9.382 -0.3955  0.2945 -0.2977
 3655TIP3    H127537   4.969   4.649   9.297 -1.1913  0.8990  0.0226
 3655TIP3    H227538   4.961   4.606   9.442 -1.5157  1.9939  0.3435
 3656TIP3   OH227539   6.256   0.980   7.801  0.1169  0.2151 -0.3324
 3656TIP3    H127540   6.278   1.071   7.780  0.5972  0.2860  0.4219
 3656TIP3    H227541   6.320   0.928   7.752  0.6061  0.3382  0.1637
 3657TIP3   OH227542   0.337   4.064   0.319  0.8113 -0.4293 -0.0200
 3657TIP3    H127543   0.268   4.115   0.361  1.4897  0.4870  0.0208
 3657TIP3    H227544   0.415   4.082   0.372  1.3350 -0.5078 -0.7447
 3658TIP3   OH227545   4.094   2.289   8.228 -0.1956  0.1894  1.0588
 3658TIP3    H127546   4.014   2.240   8.249 -0.4738  0.2739  0.2493
 3658TIP3    H227547   4.062   2.368   8.184  0.3546 -0.3033 -0.2930
 3659TIP3   OH227548   5.056   4.917   0.940  0.2719  0.0854 -0.2762
 3659TIP3    H127549   5.045   4.964   1.022  0.3272  0.4504 -0.4742
 3659TIP3    H227550   5.143   4.876   0.947 -0.1252 -0.6997  0.2434
 3660TIP3   OH227551   3.985   6.281   7.187 -0.3642 -0.9272 -0.2759
 3660TIP3    H127552   3.921   6.291   7.116 -0.4366 -0.9317 -0.2120
 3660TIP3    H227553   4.005   6.187   7.189 -0.9309 -1.0470  0.1996
 3661TIP3   OH227554   1.955   0.906   0.394 -0.7108 -0.2774  0.2352
 3661TIP3    H127555   1.977   0.864   0.311  1.7259 -1.0413  1.1976
 3661TIP3    H227556   1.956   0.836   0.459  1.2928  0.8213  1.5136
 3662TIP3   OH227557   2.629   3.538   9.086 -0.1204  0.0258  0.8416
 3662TIP3    H127558   2.569   3.568   9.155 -1.8701  0.0725 -0.6163
 3662TIP3    H227559   2.579   3.549   9.005  3.2551  4.1301 -1.0678
 3663TIP3   OH227560   1.010   4.861   7.981 -0.3560 -0.6531  0.1169
 3663TIP3    H127561   1.079   4.801   8.012 -1.2923 -1.6993  0.2148
 3663TIP3    H227562   1.006   4.929   8.049  1.2784  0.0100 -0.3945
 3664TIP3   OH227563   3.033   2.201   7.674  0.0054  0.3416 -0.9946
 3664TIP3    H127564   2.945   2.238   7.682 -1.4055 -2.8746  0.1361
 3664TIP3    H227565   3.068   2.206   7.763 -0.9247 -2.3978 -0.3914
 3665TIP3   OH227566   0.849   3.929   3.131  0.5050  0.0376  0.4512
 3665TIP3    H127567   0.828   3.883   3.049  1.8735  1.5038 -0.8111
 3665TIP3    H227568   0.944   3.941   3.128  0.3472  1.8921  1.2491
 3666TIP3   OH227569   0.045   3.395   0.053  0.8370 -0.3338 -0.0931
 3666TIP3    H127570   0.027   3.444   0.134 -0.4667 -0.8343 -0.0554
 3666TIP3    H227571   0.075   3.462  -0.009  0.4202  0.3048  0.3769
 3667TIP3   OH227572   3.712   4.644   7.814 -0.1914 -0.6598 -0.6437
 3667TIP3    H127573   3.785   4.694   7.778 -0.2178  0.4465  0.7447
 3667TIP3    H227574   3.751   4.585   7.878 -0.2111 -2.2062 -1.9868
 3668TIP3   OH227575   6.473   4.767   6.004 -0.1095  0.3921  0.2347
 3668TIP3    H127576   6.410   4.839   6.018  0.2691  0.4031  2.1123
 3668TIP3    H227577   6.451   4.703   6.071  0.4440 -0.6407 -0.5549
 3669TIP3   OH227578   3.773   1.950   0.949  0.2550  0.0078 -0.0913
 3669TIP3    H127579   3.677   1.956   0.942  0.2729  0.5607  0.0641
 3669TIP3    H227580   3.803   1.964   0.859  0.2191  0.6924 -0.0048
 3670TIP3   OH227581   1.747   3.463   1.753 -0.0842 -0.2106  0.5208
 3670TIP3    H127582   1.776   3.379   1.717  0.4821 -0.0824  0.6601
 3670TIP3    H227583   1.722   3.515   1.676 -1.3092 -0.8072  0.4874
 3671TIP3   OH227584   4.376   1.785   6.945 -0.9102 -0.1453  0.3674
 3671TIP3    H127585   4.306   1.800   6.882 -0.7837  0.8072  0.4489
 3671TIP3    H227586   4.349   1.834   7.023  0.1025  0.6741  0.2170
 3672TIP3   OH227587   4.203   0.998   0.627  0.4092 -0.3222  0.7279
 3672TIP3    H127588   4.129   0.965   0.577  0.2122  0.1902  0.6723
 3672TIP3    H227589   4.164   1.039   0.704  0.6239 -0.0226  0.6817
 3673TIP3   OH227590   3.422   0.448   6.486  0.8072 -0.0031 -0.2085
 3673TIP3    H127591   3.373   0.377   6.444 -1.0370 -0.2588  2.1637
 3673TIP3    H227592   3.485   0.404   6.542  0.2740  0.2278  0.5833
 3674TIP3   OH227593   1.050   2.664   1.598 -0.0199  0.3329  0.4198
 3674TIP3    H127594   0.983   2.598   1.616  0.1181 -0.4158 -1.5482
 3674TIP3    H227595   1.010   2.747   1.623 -0.1146 -0.4380  3.1988
 3675TIP3   OH227596   3.945   2.307   2.069 -0.3867 -0.1726  0.4575
 3675TIP3    H127597   3.869   2.361   2.045 -0.3975  0.3406  1.6012
 3675TIP3    H227598   3.913   2.250   2.138  0.4264  0.5189  1.4270
 3676TIP3   OH227599   4.144   4.768   2.605  0.0931 -0.1863 -0.4217
 3676TIP3    H127600   4.068   4.753   2.662  1.0886  1.0034  1.3018
 3676TIP3    H227601   4.209   4.704   2.635  0.6999  0.5870 -0.0718
 3677TIP3   OH227602   3.170   2.033   2.609 -0.1463  0.0703  0.4572
 3677TIP3    H127603   3.254   2.007   2.648 -0.1585  1.1160  1.2375
 3677TIP3    H227604   3.144   2.111   2.659 -1.0652  0.3794 -0.4677
 3678TIP3   OH227605   0.779   0.350   6.776 -0.2594  0.5475 -0.1965
 3678TIP3    H127606   0.755   0.379   6.688 -1.2474 -0.1420 -0.1770
 3678TIP3    H227607   0.872   0.372   6.785  0.4521 -1.3340 -2.2304
 3679TIP3   OH227608   6.221   2.515   1.381 -0.1404  0.4410 -0.3462
 3679TIP3    H127609   6.240   2.571   1.306 -0.1973  1.7414  0.5850
 3679TIP3    H227610   6.144   2.554   1.422  1.2320  1.1623  1.7063
 3680TIP3   OH227611   1.853   0.143   9.199  0.3939 -0.1175  0.0095
 3680TIP3    H127612   1.789   0.212   9.180  2.6131  2.6594  1.7488
 3680TIP3    H227613   1.887   0.117   9.113 -0.8210  0.6123 -0.7236
 3681TIP3   OH227614   3.462   1.020   1.634  0.7618 -0.7268  0.0256
 3681TIP3    H127615   3.371   0.998   1.654  0.0807 -0.2396 -2.2364
 3681TIP3    H227616   3.507   0.936   1.632  0.1281 -1.0825  0.1697
 3682TIP3   OH227617   0.605   4.628   1.232 -0.4822 -0.6108 -0.0218
 3682TIP3    H127618   0.649   4.713   1.227  0.6990 -1.1972 -0.0316
 3682TIP3    H227619   0.577   4.610   1.142  0.0754 -0.6316 -0.1957
 3683TIP3   OH227620   4.000   1.215   9.152  0.3503 -0.1649 -0.3223
 3683TIP3    H127621   4.088   1.183   9.170  0.7215 -0.6360 -2.6797
 3683TIP3    H227622   3.981   1.274   9.225  2.2325 -0.7538  0.7156
 3684TIP3   OH227623   5.240   3.034   0.768 -0.7019 -0.6173  0.8913
 3684TIP3    H127624   5.301   2.963   0.786  1.9044  1.2490 -0.0551
 3684TIP3    H227625   5.266   3.104   0.828 -0.8437  0.7943 -0.6132
 3685TIP3   OH227626   2.705   2.342   6.724 -0.1711 -0.2516 -0.5106
 3685TIP3    H127627   2.753   2.416   6.688  1.4979  0.0127  1.9958
 3685TIP3    H227628   2.645   2.380   6.788 -1.5924 -0.8384 -1.4571
 3686TIP3   OH227629   3.481   3.703   8.207 -0.2563  0.2687  0.1109
 3686TIP3    H127630   3.486   3.714   8.302 -3.1801 -0.0043  0.3751
 3686TIP3    H227631   3.518   3.616   8.191  2.6937  1.2996  0.5790
 3687TIP3   OH227632   1.018   0.515   0.421 -0.3911 -0.1701 -0.2968
 3687TIP3    H127633   0.985   0.545   0.336  0.5541  1.1986 -0.2172
 3687TIP3    H227634   1.000   0.588   0.481  2.6126  0.6546 -0.2502
 3688TIP3   OH227635   4.245   1.854   1.334  0.1577 -0.0321 -0.4992
 3688TIP3    H127636   4.236   1.922   1.401  0.6528  1.9089 -2.3024
 3688TIP3    H227637   4.244   1.771   1.383  0.4264  1.2926  1.8694
 3689TIP3   OH227638   4.824   1.648   7.463 -0.4098 -0.5353  0.2607
 3689TIP3    H127639   4.771   1.697   7.525  0.2845  0.2886  0.2228
 3689TIP3    H227640   4.903   1.700   7.453 -0.1737 -1.0571 -0.7126
 3690TIP3   OH227641   5.580   1.917   6.450 -0.2146 -0.3868  0.2182
 3690TIP3    H127642   5.487   1.894   6.459 -0.3323 -0.0677 -0.1368
 3690TIP3    H227643   5.584   2.009   6.477 -0.1390 -0.1772 -0.4698
 3691TIP3   OH227644   4.179   2.912   2.210  0.4829 -0.1346 -0.5430
 3691TIP3    H127645   4.266   2.900   2.171  0.9612  0.8792  0.1764
 3691TIP3    H227646   4.127   2.842   2.172  1.7720 -1.1485 -0.5328
 3692TIP3   OH227647   3.276   4.724   2.064 -0.4356 -0.3199 -0.4107
 3692TIP3    H127648   3.217   4.652   2.042 -1.0623  0.7529 -2.5928
 3692TIP3    H227649   3.284   4.773   1.982  0.5297  1.6881  0.8177
 3693TIP3   OH227650   3.728   1.782   9.397 -0.3652  0.4804 -0.2762
 3693TIP3    H127651   3.820   1.757   9.406 -0.4029  0.0718 -0.9348
 3693TIP3    H227652   3.724   1.830   9.314 -0.6094  1.1626  0.1277
 3694TIP3   OH227653   3.132   0.547   8.750 -0.0448 -0.3977  0.0613
 3694TIP3    H127654   3.107   0.566   8.840  1.9848  1.0964  0.3735
 3694TIP3    H227655   3.138   0.451   8.746 -0.6184 -0.5058  1.3518
 3695TIP3   OH227656   2.111   3.868   7.545  0.0652  0.9668  0.4792
 3695TIP3    H127657   2.084   3.776   7.542  1.3270  0.5935 -1.7370
 3695TIP3    H227658   2.066   3.908   7.470  2.2020  1.2752 -0.7351
 3696TIP3   OH227659   6.067   2.058   0.449 -0.0516  0.5914 -0.3624
 3696TIP3    H127660   5.999   2.091   0.391  0.3216  0.5758 -0.8157
 3696TIP3    H227661   6.023   2.041   0.532 -0.7262 -0.0077 -0.8366
 3697TIP3   OH227662   2.823   3.026   0.293 -0.0508 -0.2802 -0.0137
 3697TIP3    H127663   2.765   3.061   0.361  0.4298 -1.0230  0.8084
 3697TIP3    H227664   2.910   3.055   0.320  0.0590  0.1482 -0.8035
 3698TIP3   OH227665   5.607   4.121   0.221  0.4274 -0.2095 -0.8033
 3698TIP3    H127666   5.581   4.166   0.141  2.4506 -1.5688 -2.3258
 3698TIP3    H227667   5.572   4.032   0.211 -0.1267 -0.1293  0.2877
 3699TIP3   OH227668   1.966   0.675   2.508  0.0101  0.2081  0.0863
 3699TIP3    H127669   1.993   0.735   2.438 -0.8758  0.2766 -0.2138
 3699TIP3    H227670   1.963   0.589   2.466 -2.7273  0.5509 -0.6346
 3700TIP3   OH227671   2.474   2.148   7.669  0.8172  0.0571 -0.2904
 3700TIP3    H127672   2.488   2.226   7.721  1.0282 -0.3469  0.2655
 3700TIP3    H227673   2.456   2.180   7.581  1.1094  0.7179 -0.1090
 3701TIP3   OH227674   4.603   1.939   7.861 -0.0867 -0.1890  0.0525
 3701TIP3    H127675   4.538   1.968   7.798 -0.2796  1.1595  0.8364
 3701TIP3    H227676   4.667   2.011   7.865  0.6457 -0.8372  0.3930
 3702TIP3   OH227677   3.247   1.205   8.122 -0.5168 -0.0138 -0.0948
 3702TIP3    H127678   3.298   1.157   8.187  0.2163 -0.0741 -0.7016
 3702TIP3    H227679   3.309   1.224   8.052 -1.2663  0.1410 -0.7337
 3703TIP3   OH227680   0.957   4.315   0.407  0.3333  0.3650  0.1892
 3703TIP3    H127681   1.024   4.356   0.463 -1.1753 -0.1785  2.5203
 3703TIP3    H227682   0.994   4.229   0.386  0.8335  0.4778  0.5609
 3704TIP3   OH227683   1.493   1.557   0.165  0.1143 -0.2690  0.1067
 3704TIP3    H127684   1.399   1.565   0.183 -0.3355 -1.0981 -1.6267
 3704TIP3    H227685   1.515   1.469   0.195  0.5194  0.1710  1.1434
 3705TIP3   OH227686   1.540   1.130   0.089 -0.4906  0.7826  0.1134
 3705TIP3    H127687   1.495   1.051   0.118  0.9681 -0.7859 -1.6620
 3705TIP3    H227688   1.596   1.154   0.163  0.8880 -1.3412 -0.1697
 3706TIP3   OH227689   5.564   0.406   8.643  0.1711 -0.0179  0.0893
 3706TIP3    H127690   5.481   0.450   8.623 -1.2523 -2.0577  1.1622
 3706TIP3    H227691   5.626   0.477   8.661 -1.9258  1.5623  1.4854
 3707TIP3   OH227692   3.083   4.153   2.747  0.6059 -0.5198  0.6277
 3707TIP3    H127693   3.049   4.242   2.750  2.9577  0.4265  1.6097
 3707TIP3    H227694   3.008   4.098   2.773 -1.0557  1.0535 -0.6076
 3708TIP3   OH227695   3.488   1.439   1.025  0.2484 -0.0911 -0.1177
 3708TIP3    H127696   3.434   1.512   1.056 -1.2205 -1.4862  0.7348
 3708TIP3    H227697   3.476   1.439   0.930 -0.7024  0.0532 -0.0100
 3709TIP3   OH227698   4.198   0.310   2.214  0.3428 -0.2415  0.4033
 3709TIP3    H127699   4.285   0.285   2.245  0.6966  0.8330  0.3044
 3709TIP3    H227700   4.204   0.301   2.119  0.6950  0.8374  0.3061
 3710TIP3   OH227701   1.271   2.249   1.604 -0.1104  0.1986  0.7041
 3710TIP3    H127702   1.364   2.240   1.585  0.1023  1.0903  1.2965
 3710TIP3    H227703   1.228   2.191   1.541  0.8897 -0.9412  1.0336
 3711TIP3   OH227704   4.889   5.933   9.132  0.0810  0.1571  0.6758
 3711TIP3    H127705   4.878   6.009   9.188 -2.6548 -0.3787  0.9863
 3711TIP3    H227706   4.840   5.863   9.175  1.2360 -1.3951 -0.3821
 3712TIP3   OH227707   1.180   0.089   6.762  0.6484 -0.0336  0.0922
 3712TIP3    H127708   1.223   0.004   6.767  0.8165 -0.1410 -2.2877
 3712TIP3    H227709   1.102   0.079   6.816  1.1366 -1.3816  0.5965
 3713TIP3   OH227710   5.143   2.457   0.478  0.9325 -0.3244 -0.2426
 3713TIP3    H127711   5.144   2.391   0.409 -0.8712 -3.3931  2.3778
 3713TIP3    H227712   5.194   2.418   0.549  0.4230  1.4406  1.1601
 3714TIP3   OH227713   2.852   6.227   2.052 -0.8822  0.0315 -0.0165
 3714TIP3    H127714   2.946   6.228   2.032 -0.6706 -0.3772  0.9148
 3714TIP3    H227715   2.848   6.219   2.147 -1.8738 -0.1732 -0.0674
 3715TIP3   OH227716   0.302   4.182   8.879  0.2577  0.0759  0.1691
 3715TIP3    H127717   0.382   4.226   8.851  0.0380  0.4857  0.1857
 3715TIP3    H227718   0.241   4.195   8.807  0.3255 -0.5697 -0.0102
 3716TIP3   OH227719   1.730   1.419   1.889 -0.1817 -0.1227 -0.0521
 3716TIP3    H127720   1.794   1.470   1.938 -0.7279  1.0320 -0.5122
 3716TIP3    H227721   1.779   1.379   1.818  0.2831 -0.3884  0.4126
 3717TIP3   OH227722   2.890   1.370   6.881 -0.0373 -0.7498  0.6859
 3717TIP3    H127723   2.928   1.426   6.813 -2.5361 -1.8469 -1.8126
 3717TIP3    H227724   2.805   1.409   6.900 -0.3127 -1.7163  1.5433
 3718TIP3   OH227725   1.607   4.610   0.418  0.4124 -0.1829  0.0474
 3718TIP3    H127726   1.567   4.680   0.468  1.7356 -0.0896  1.0156
 3718TIP3    H227727   1.653   4.654   0.347  1.3589 -0.0541  0.7368
 3719TIP3   OH227728   5.134   3.567   1.818  0.6174  0.2675  0.1064
 3719TIP3    H127729   5.164   3.503   1.753  1.4782 -0.0227  0.7758
 3719TIP3    H227730   5.175   3.649   1.793  0.7080  0.2238  0.1136
 3720TIP3   OH227731   2.822   1.104   8.351 -0.4845 -0.0438 -0.1371
 3720TIP3    H127732   2.904   1.140   8.317 -1.6789  1.3034 -1.7784
 3720TIP3    H227733   2.796   1.038   8.287  0.1949 -1.8269  1.3385
 3721TIP3   OH227734   1.567   0.658   2.865  0.4976  0.2014 -0.6234
 3721TIP3    H127735   1.580   0.749   2.839  0.8713 -0.4889 -3.0393
 3721TIP3    H227736   1.649   0.632   2.906  1.7023  0.0179 -3.0100
 3722TIP3   OH227737   4.430   4.693   0.263 -0.2862  0.1872  0.5050
 3722TIP3    H127738   4.392   4.699   0.350 -1.1330  1.4599  0.0689
 3722TIP3    H227739   4.501   4.757   0.263  1.3657 -1.5396  1.0192
 3723TIP3   OH227740   4.245   1.991   7.890 -0.3892  0.4959  0.1006
 3723TIP3    H127741   4.176   2.054   7.871  0.0411  0.6458 -1.0477
 3723TIP3    H227742   4.198   1.913   7.921 -0.9881  0.9864  0.4583
 3724TIP3   OH227743   2.308   0.646   6.281  0.0268 -0.3479  0.1355
 3724TIP3    H127744   2.352   0.731   6.284 -1.1908  0.3789 -1.3257
 3724TIP3    H227745   2.378   0.582   6.291  1.3881  0.7745 -1.7194
 3725TIP3   OH227746   2.781   0.698   8.517  0.3876 -0.1402  0.5362
 3725TIP3    H127747   2.700   0.729   8.477  0.6524 -0.3125 -0.1479
 3725TIP3    H227748   2.777   0.729   8.608 -0.2658  0.1748  0.4022
 3726TIP3   OH227749   4.060   5.918   9.103 -0.0081 -0.2055  0.9124
 3726TIP3    H127750   4.151   5.890   9.115  0.1247  0.1212  0.6950
 3726TIP3    H227751   4.034   5.879   9.020 -0.3138 -0.9172  1.3366
 3727TIP3   OH227752   4.264   1.451   2.129 -0.2741  0.2588  0.3252
 3727TIP3    H127753   4.183   1.431   2.175 -0.2617  0.6323  0.5047
 3727TIP3    H227754   4.237   1.496   2.049 -0.3043 -0.4951 -0.1045
 3728TIP3   OH227755   0.691   3.488   3.123 -0.3568  0.4048 -0.4690
 3728TIP3    H127756   0.646   3.405   3.142  0.2012  0.3016  0.4608
 3728TIP3    H227757   0.626   3.539   3.074 -0.8815 -0.3859 -0.6281
 3729TIP3   OH227758   0.335   0.172   9.004  0.6108 -0.0985 -0.6692
 3729TIP3    H127759   0.304   0.091   8.964 -0.4041 -1.6122  2.7945
 3729TIP3    H227760   0.284   0.241   8.962  0.8127 -1.2853 -3.0214
 3730TIP3   OH227761   0.618   5.257   8.470 -0.2075  0.5219 -0.1842
 3730TIP3    H127762   0.682   5.194   8.437 -1.0527 -0.0240 -0.8384
 3730TIP3    H227763   0.544   5.203   8.498 -0.5476  1.1628  0.1640
 3731TIP3   OH227764   6.073   3.585   3.048 -1.1122  0.1115  0.1409
 3731TIP3    H127765   6.160   3.547   3.060  0.0918  2.5348 -0.2692
 3731TIP3    H227766   6.028   3.522   2.991  0.1287 -1.4890  0.8204
 3732TIP3   OH227767   0.736   2.494   0.708 -0.0795 -0.3928  0.2226
 3732TIP3    H127768   0.656   2.488   0.655 -0.1790 -0.0707  0.3325
 3732TIP3    H227769   0.706   2.480   0.798 -0.5771  2.9745  0.7006
 3733TIP3   OH227770   2.493   3.603   9.307  0.0775  0.0228 -0.1195
 3733TIP3    H127771   2.479   3.692   9.338 -0.1419 -0.1746  0.3519
 3733TIP3    H227772   2.556   3.565   9.368 -1.8523 -1.0185  1.3316
 3734TIP3   OH227773   0.272   5.103   2.352 -1.2637  0.4556  0.3445
 3734TIP3    H127774   0.289   5.167   2.421 -1.4663 -0.8700  1.6813
 3734TIP3    H227775   0.294   5.149   2.271  1.5075  1.2589  1.4155
 3735TIP3   OH227776   1.947   1.202   2.172  0.4351  0.3012  0.1417
 3735TIP3    H127777   1.924   1.295   2.174  0.9701  0.4228  1.7607
 3735TIP3    H227778   2.041   1.200   2.189  0.0360 -0.6289  2.5076
 3736TIP3   OH227779   1.374   4.921   1.807 -0.0678 -0.1629 -0.0435
 3736TIP3    H127780   1.337   4.847   1.759 -0.8070  0.9830 -1.3245
 3736TIP3    H227781   1.459   4.936   1.764  1.2538 -1.7850  1.8467
 3737TIP3   OH227782   3.116   1.523   7.029  0.3901  0.0438  0.6647
 3737TIP3    H127783   3.021   1.534   7.018  0.4631  1.8973  1.5800
 3737TIP3    H227784   3.138   1.452   6.969 -1.3524  0.5605 -0.7013
 3738TIP3   OH227785   5.038   1.959   1.803  0.1948 -0.2007 -0.4182
 3738TIP3    H127786   4.953   1.984   1.767 -0.7518 -0.1014  1.7333
 3738TIP3    H227787   5.075   1.898   1.739 -0.9531  0.6507 -1.9581
 3739TIP3   OH227788   4.644   5.542   0.471  0.1745  0.1866 -0.0704
 3739TIP3    H127789   4.603   5.582   0.394 -2.6876 -1.9491  0.2003
 3739TIP3    H227790   4.593   5.573   0.545  1.9775  1.0360  0.8671
 3740TIP3   OH227791   4.152   1.037   1.110 -0.3090 -0.2077  0.0937
 3740TIP3    H127792   4.219   1.034   1.178  1.8809 -2.7086 -1.9395
 3740TIP3    H227793   4.104   0.955   1.120  0.3420 -0.8373 -1.5309
 3741TIP3   OH227794   3.563   0.766   9.290  0.1994 -0.1598  0.4606
 3741TIP3    H127795   3.594   0.853   9.264 -0.2980 -0.6698 -2.0503
 3741TIP3    H227796   3.634   0.707   9.265 -0.8283 -0.8155 -1.0814
 3742TIP3   OH227797   5.914   4.694   2.221 -0.2441  0.0386 -0.8012
 3742TIP3    H127798   5.858   4.772   2.213 -0.1220  0.2849  0.4728
 3742TIP3    H227799   6.000   4.729   2.243  0.0473 -0.4231 -1.1820
 3743TIP3   OH227800   4.496   4.192   2.342  0.2305  0.3207 -0.5014
 3743TIP3    H127801   4.528   4.259   2.283  1.8737  1.8553  1.9544
 3743TIP3    H227802   4.521   4.109   2.300  1.0157  1.3133 -2.0866
 3744TIP3   OH227803   3.656   2.740   1.333  0.6333  0.3481  0.3017
 3744TIP3    H127804   3.691   2.814   1.283 -0.8978 -0.7288 -2.5674
 3744TIP3    H227805   3.582   2.777   1.382 -0.8596  0.6159 -2.0049
 3745TIP3   OH227806   4.911   2.651   1.620  0.2687 -0.1610 -0.1486
 3745TIP3    H127807   4.881   2.710   1.551  0.8034  1.6212  1.0539
 3745TIP3    H227808   5.007   2.650   1.610  0.3118 -0.2766  0.2518
 3746TIP3   OH227809   1.074   1.812   8.926  0.0935  0.4373  0.2752
 3746TIP3    H127810   1.016   1.804   9.002  0.2338 -1.1878  0.2385
 3746TIP3    H227811   1.152   1.762   8.950 -0.7797 -2.1086 -1.7769
 3747TIP3   OH227812   4.931   2.351   1.971  0.5703  0.9194 -0.0144
 3747TIP3    H127813   5.006   2.292   1.981 -0.3760 -0.2409  0.5041
 3747TIP3    H227814   4.889   2.322   1.890 -1.4437 -1.0106  1.5890
 3748TIP3   OH227815   1.969   0.409   2.466 -0.1077  0.3680 -0.1818
 3748TIP3    H127816   1.927   0.366   2.392  0.9729  2.5674 -2.1868
 3748TIP3    H227817   2.055   0.366   2.472  0.1366  0.7626 -0.7796
 3749TIP3   OH227818   2.323   3.479   0.213 -0.0627 -0.3707  0.0286
 3749TIP3    H127819   2.258   3.409   0.212 -0.9597  0.3974  1.1569
 3749TIP3    H227820   2.298   3.533   0.288 -0.8373  2.4908 -2.1157
 3750TIP3   OH227821   4.470   0.512   1.677  0.2579  0.2296  0.6945
 3750TIP3    H127822   4.524   0.587   1.653  1.7337 -1.3433 -1.2247
 3750TIP3    H227823   4.529   0.453   1.722 -0.4825 -0.4751  0.7744
 3751TIP3   OH227824   4.709   1.941   7.456  1.0237 -0.3677  0.0399
 3751TIP3    H127825   4.774   1.917   7.522  0.4187 -0.7490  0.5026
 3751TIP3    H227826   4.640   1.875   7.465  0.1606  0.5341  0.1445
 3752TIP3   OH227827   5.727   6.034   1.769  0.2846 -0.1387  0.0627
 3752TIP3    H127828   5.772   6.096   1.712  0.6974 -0.9060 -0.4697
 3752TIP3    H227829   5.798   5.988   1.814  0.0783 -1.5018 -0.9332
 3753TIP3   OH227830   3.730   2.293   0.484  0.6383  0.2660  0.1702
 3753TIP3    H127831   3.784   2.240   0.542  0.3280  0.7409  0.9006
 3753TIP3    H227832   3.655   2.238   0.463 -0.1135  0.7101  1.6150
 3754TIP3   OH227833   4.414   2.459   0.169  0.4023 -0.3574  0.2638
 3754TIP3    H127834   4.433   2.378   0.216 -0.8702 -0.1826  1.1255
 3754TIP3    H227835   4.321   2.475   0.185  0.0309 -0.0154 -1.9500
 3755TIP3   OH227836   4.577   2.651   0.752 -0.5976 -0.0293 -0.1022
 3755TIP3    H127837   4.625   2.711   0.694  0.9482 -0.7928  0.3274
 3755TIP3    H227838   4.605   2.676   0.840 -0.5686 -0.8423  0.1234
 3756TIP3   OH227839   6.389   5.487   0.400 -0.3206 -0.4134 -0.1596
 3756TIP3    H127840   6.404   5.471   0.493 -0.9936 -0.7180 -0.0965
 3756TIP3    H227841   6.388   5.582   0.392 -1.7246 -0.3520  0.4085
 3757TIP3   OH227842   0.021   1.823   7.590  0.1645 -0.4499  0.0856
 3757TIP3    H127843  -0.013   1.814   7.679  1.6966 -0.1387  0.7368
 3757TIP3    H227844   0.034   1.917   7.579 -1.5130 -0.3109 -1.0970
 3758TIP3   OH227845   5.093   1.330   7.614  0.0314 -0.1827  0.0623
 3758TIP3    H127846   5.077   1.405   7.670 -1.5225  0.2814 -0.9315
 3758TIP3    H227847   5.016   1.274   7.627  0.8858 -1.3418  0.3453
 3759TIP3   OH227848   1.684   0.363   8.121 -0.2261  0.2956  0.1727
 3759TIP3    H127849   1.630   0.441   8.106  0.1163  0.4915 -0.0468
 3759TIP3    H227850   1.719   0.341   8.035  0.0317  0.1558  0.3130
 3760TIP3   OH227851   0.001   0.237   8.534  0.3706  0.3409  0.4341
 3760TIP3    H127852   0.013   0.142   8.531 -2.1135 -0.1254  2.1838
 3760TIP3    H227853   0.038   0.268   8.452  0.2575 -2.2660 -0.7129
 3761TIP3   OH227854   1.343   4.441   3.433 -0.4473 -0.5921  0.3116
 3761TIP3    H127855   1.378   4.352   3.436 -2.3091 -1.3552  1.3417
 3761TIP3    H227856   1.276   4.437   3.365  1.1181  0.7394 -1.3996
 3762TIP3   OH227857   2.839   0.585   1.633  0.0928  0.1723  0.4748
 3762TIP3    H127858   2.854   0.667   1.681  1.0296  1.0256 -1.1751
 3762TIP3    H227859   2.746   0.588   1.610 -0.0053  0.5089  0.8984
 3763TIP3   OH227860   4.015   4.525   7.102 -0.6234 -0.0157 -0.0679
 3763TIP3    H127861   3.955   4.466   7.058 -0.3995 -0.5351  0.3125
 3763TIP3    H227862   4.097   4.517   7.053 -0.1110 -1.2610  0.9420
 3764TIP3   OH227863   0.081   4.641   8.893 -0.6056  0.0335 -0.5026
 3764TIP3    H127864   0.101   4.718   8.946 -0.4324  1.5793 -2.6782
 3764TIP3    H227865   0.002   4.666   8.846  0.5770 -0.2753 -2.7566
 3765TIP3   OH227866   3.124   0.839   6.650 -0.3607 -0.5583  0.0977
 3765TIP3    H127867   3.214   0.814   6.672 -0.7029  0.0413  2.4577
 3765TIP3    H227868   3.074   0.758   6.656  0.0137 -0.9750 -1.6140
 3766TIP3   OH227869   1.669   1.254   1.282  0.3122 -0.4305 -0.8688
 3766TIP3    H127870   1.739   1.227   1.221 -0.0342 -0.6070 -1.1932
 3766TIP3    H227871   1.672   1.189   1.352  1.1717  0.1668 -0.3258
 3767TIP3   OH227872   0.348   1.941   8.480 -0.4186  0.7005  0.4057
 3767TIP3    H127873   0.257   1.958   8.456 -0.5803 -0.2586  0.2943
 3767TIP3    H227874   0.347   1.853   8.519  0.4885  0.5914  0.2110
 3768TIP3   OH227875   1.907   3.450   0.652 -0.0693 -0.0238  0.1877
 3768TIP3    H127876   1.817   3.434   0.623  0.4564  0.4808 -1.8484
 3768TIP3    H227877   1.960   3.389   0.601  0.8414  0.3046  0.7131
 3769TIP3   OH227878   3.566   5.300   1.763 -0.0870 -0.3985  0.3199
 3769TIP3    H127879   3.642   5.358   1.758  0.8366 -1.5446  0.6820
 3769TIP3    H227880   3.542   5.301   1.856  0.2564 -0.9917  0.4182
 3770TIP3   OH227881   4.393   2.297   2.901  0.1617  0.4013 -0.1950
 3770TIP3    H127882   4.433   2.366   2.954  0.1708  0.1007  0.1948
 3770TIP3    H227883   4.313   2.336   2.866  0.8139  1.0213 -1.0121
 3771TIP3   OH227884   2.441   1.199   8.003  0.5375 -0.1217 -0.8098
 3771TIP3    H127885   2.521   1.240   8.035  1.0432 -1.1125 -0.7633
 3771TIP3    H227886   2.451   1.199   7.907  1.8325 -2.5552 -0.7528
 3772TIP3   OH227887   1.441   2.803   7.763 -0.4184 -0.9408  0.2989
 3772TIP3    H127888   1.351   2.835   7.768  0.3699  2.0633 -2.1406
 3772TIP3    H227889   1.491   2.864   7.818  0.4807 -0.9618 -0.4800
 3773TIP3   OH227890   0.770   3.701   2.092  0.3606  0.0037  0.2498
 3773TIP3    H127891   0.685   3.662   2.110  1.0069 -1.1213  1.0173
 3773TIP3    H227892   0.823   3.630   2.056  1.9751 -0.3048  2.9040
 3774TIP3   OH227893   2.166   1.654   7.915  0.3589  0.1685  0.4083
 3774TIP3    H127894   2.199   1.732   7.957 -0.3581  0.4688  0.4375
 3774TIP3    H227895   2.190   1.582   7.974  1.7530  0.2526 -0.0296
 3775TIP3   OH227896   2.457   2.743   8.102  0.2684 -0.7053  0.0292
 3775TIP3    H127897   2.529   2.681   8.113 -0.4405 -1.5301  0.0855
 3775TIP3    H227898   2.450   2.787   8.186  1.0940 -0.1819 -0.1624
 3776TIP3   OH227899   4.794   6.229   8.253 -0.5137  0.1831  0.1740
 3776TIP3    H127900   4.747   6.244   8.335 -0.4294  1.8111 -0.0561
 3776TIP3    H227901   4.847   6.307   8.240  2.5422 -1.6511  0.5504
 3777TIP3   OH227902   2.128   0.652   1.295  0.2220  0.3325  0.3274
 3777TIP3    H127903   2.140   0.576   1.238 -1.4820 -0.2402  0.6967
 3777TIP3    H227904   2.153   0.727   1.240  0.7925 -0.3879 -0.4182
 3778TIP3   OH227905   0.787   5.917   9.306 -0.0165 -0.1044 -0.1441
 3778TIP3    H127906   0.813   5.839   9.355 -0.6014 -0.0533  0.2689
 3778TIP3    H227907   0.861   5.977   9.315  0.2147 -0.4067 -0.0115
 3779TIP3   OH227908   2.835   0.066   1.576  0.1573  0.1016  0.3678
 3779TIP3    H127909   2.828  -0.029   1.572  0.2521  0.1084  0.0238
 3779TIP3    H227910   2.898   0.083   1.647  0.4582 -0.1041  0.1524
 3780TIP3   OH227911   0.021   5.664   9.025  0.1691 -0.3042  0.9199
 3780TIP3    H127912   0.086   5.656   9.094  1.3729  2.2296  0.1704
 3780TIP3    H227913   0.044   5.596   8.962  0.0943 -1.5067  2.1373
 3781TIP3   OH227914   0.397   5.815   9.376 -0.5535 -0.1437  0.2255
 3781TIP3    H127915   0.337   5.755   9.421  0.0257 -0.6368  0.3588
 3781TIP3    H227916   0.473   5.821   9.434 -0.2953  0.1376 -0.1368
 3782TIP3   OH227917   3.641   0.891   0.729 -0.1391 -0.2537  0.3037
 3782TIP3    H127918   3.564   0.835   0.724 -0.8633  0.7888 -1.0993
 3782TIP3    H227919   3.611   0.971   0.772  0.3012 -0.0636  0.2698
 3783TIP3   OH227920   2.632   1.113   2.925  0.2776  0.0295 -0.0216
 3783TIP3    H127921   2.560   1.153   2.973 -0.7589  0.3376 -1.7529
 3783TIP3    H227922   2.687   1.187   2.899  0.9499 -0.1557  0.8253
 3784TIP3   OH227923   4.585   1.491   2.969 -0.3411  0.0070  0.1569
 3784TIP3    H127924   4.668   1.454   2.999 -0.8285  0.1855  1.8344
 3784TIP3    H227925   4.593   1.585   2.986 -0.8500  0.0365  0.2468
 3785TIP3   OH227926   2.160   0.974   8.761 -0.0769 -0.0146 -0.1258
 3785TIP3    H127927   2.218   0.997   8.688 -0.7538  0.0050 -0.6727
 3785TIP3    H227928   2.189   1.029   8.833 -0.2912  1.0102 -0.7951
 3786TIP3   OH227929   2.845   6.235   1.661 -0.2536  0.0049  0.1304
 3786TIP3    H127930   2.850   6.275   1.748 -2.7694 -0.0634  0.3972
 3786TIP3    H227931   2.834   6.142   1.678 -1.8623  0.1076 -0.1486
 3787TIP3   OH227932   1.534   0.570   8.813  0.4539 -0.8225  0.2885
 3787TIP3    H127933   1.533   0.482   8.776 -0.0962 -0.8241  0.2953
 3787TIP3    H227934   1.615   0.609   8.781  0.7183 -1.3447  0.3204
 3788TIP3   OH227935   5.752   5.979   0.217  0.1721 -0.0422 -0.0160
 3788TIP3    H127936   5.698   6.018   0.148  2.0682  1.1478 -0.9080
 3788TIP3    H227937   5.777   5.894   0.181 -1.1890 -0.6962  0.4899
 3789TIP3   OH227938   5.949   1.913   7.210 -0.1734 -0.4565  0.6621
 3789TIP3    H127939   6.018   1.875   7.156  1.3021 -0.6254  2.5672
 3789TIP3    H227940   5.954   1.866   7.293 -0.2829  1.8167  2.0466
 3790TIP3   OH227941   4.296   6.310   1.486  0.6837  0.4867  0.8581
 3790TIP3    H127942   4.258   6.364   1.555 -1.0526  0.8561 -0.3220
 3790TIP3    H227943   4.251   6.226   1.494  0.4849  0.5254  0.2175
 3791TIP3   OH227944   2.751   2.318   1.037  0.2178  0.2452  0.3394
 3791TIP3    H127945   2.845   2.330   1.055  0.0041  1.5682  0.6637
 3791TIP3    H227946   2.745   2.325   0.941  0.3090  1.3328  0.4037
 3792TIP3   OH227947   4.796   3.891   8.633 -0.3617  0.2567 -0.4578
 3792TIP3    H127948   4.759   3.804   8.644 -0.1670  0.2956  0.5749
 3792TIP3    H227949   4.741   3.932   8.566 -3.2830  0.8453  2.0632
 3793TIP3   OH227950   5.040   5.059   7.867  0.1432  1.1143  0.7255
 3793TIP3    H127951   4.994   4.989   7.913 -0.5558  0.5230 -0.8152
 3793TIP3    H227952   5.130   5.054   7.900  1.0425 -2.8041 -1.6694
 3794TIP3   OH227953   2.833   6.362   0.772  0.5782 -0.5073 -0.1829
 3794TIP3    H127954   2.902   6.296   0.776  0.1254 -0.9440  1.3893
 3794TIP3    H227955   2.752   6.311   0.776  0.0896 -0.0521 -2.6984
 3795TIP3   OH227956   0.419   4.032   2.074  1.1137 -0.1060 -0.7690
 3795TIP3    H127957   0.465   3.960   2.117 -0.6726 -1.7733 -1.4931
 3795TIP3    H227958   0.451   4.111   2.118  0.2273 -1.5982  2.8704
 3796TIP3   OH227959   5.548   4.068   7.798 -0.7363 -0.4815  0.3579
 3796TIP3    H127960   5.465   4.066   7.844 -1.3033  1.5299 -0.4360
 3796TIP3    H227961   5.524   4.083   7.706  0.4613  2.7938  0.4376
 3797TIP3   OH227962   1.975   4.982   8.278  0.5122  0.3555 -0.0577
 3797TIP3    H127963   2.017   5.017   8.199  1.3096 -0.5074 -0.0339
 3797TIP3    H227964   1.921   4.909   8.245  1.7950 -0.8027  0.3007
 3798TIP3   OH227965   4.840   4.217   1.356  0.0401 -0.0849  0.4001
 3798TIP3    H127966   4.752   4.244   1.329 -0.4023 -1.3838  0.4613
 3798TIP3    H227967   4.852   4.258   1.442 -1.5111 -1.7652  1.5176
 3799TIP3   OH227968   4.364   2.736   2.076  0.0314  0.3350  0.3554
 3799TIP3    H127969   4.330   2.765   1.991  0.6522 -1.6134 -0.6257
 3799TIP3    H227970   4.446   2.784   2.086  0.5727 -0.2976 -0.7761
 3800TIP3   OH227971   0.603   0.151   1.864 -0.5209 -0.1983  0.3804
 3800TIP3    H127972   0.660   0.148   1.787 -0.2819 -1.1896  0.5836
 3800TIP3    H227973   0.656   0.194   1.931 -0.8922  1.0961 -0.1193
 3801TIP3   OH227974   5.366   4.346   8.854 -0.1963  0.4470  0.2963
 3801TIP3    H127975   5.447   4.396   8.844  0.1991  0.0477  1.4239
 3801TIP3    H227976   5.328   4.377   8.936 -0.8127  0.1018  0.1492
 3802TIP3   OH227977   1.930   6.106   7.011  0.0706  0.1969  0.0584
 3802TIP3    H127978   1.850   6.133   6.967 -0.8580 -0.3469  1.3309
 3802TIP3    H227979   1.974   6.188   7.034 -1.8079  0.6909  2.2740
 3803TIP3   OH227980   1.369   1.400   8.896 -0.5240  0.2279  0.3492
 3803TIP3    H127981   1.408   1.350   8.967 -2.8484  2.0368  3.1372
 3803TIP3    H227982   1.317   1.336   8.847  1.4184 -1.1214 -0.0713
 3804TIP3   OH227983   2.390   0.241   7.622  0.4151 -0.1657  0.0101
 3804TIP3    H127984   2.478   0.224   7.588  0.5227 -0.2134  0.3098
 3804TIP3    H227985   2.401   0.313   7.683  0.2298 -0.1087 -0.0237
 3805TIP3   OH227986   1.612   5.549   7.626 -0.0868  0.1918 -0.1128
 3805TIP3    H127987   1.700   5.566   7.660  0.0542  0.8507 -0.7897
 3805TIP3    H227988   1.570   5.496   7.694 -0.3039  2.6527  1.8445
 3806TIP3   OH227989   2.503   6.183   2.436 -0.5544  0.6167 -0.2900
 3806TIP3    H127990   2.433   6.119   2.439  0.5678 -0.7198 -1.3504
 3806TIP3    H227991   2.460   6.264   2.408 -1.8442  0.1183  0.1874
 3807TIP3   OH227992   4.964   1.636   1.074  0.1803  0.6396 -0.3710
 3807TIP3    H127993   5.052   1.673   1.078  0.8821 -1.0354  1.6506
 3807TIP3    H227994   4.913   1.686   1.137 -0.0353  0.9031 -0.7494
 3808TIP3   OH227995   3.398   0.989   1.276 -0.0477  0.3275  0.1729
 3808TIP3    H127996   3.426   0.902   1.248 -0.4644 -0.6927  2.7408
 3808TIP3    H227997   3.443   1.004   1.359  1.9040  3.6211 -1.2678
 3809TIP3   OH227998   6.439   2.302   1.362  0.4832 -0.0205  0.1587
 3809TIP3    H127999   6.417   2.218   1.402  1.1825 -0.9194 -1.2412
 3809TIP3    H228000   6.375   2.363   1.398  0.5721 -0.9275  1.9682
 3810TIP3   OH228001   5.957   5.669   8.060 -0.2217 -0.5258  0.4069
 3810TIP3    H128002   5.901   5.621   8.121 -2.6017  0.8573 -0.5582
 3810TIP3    H228003   5.986   5.746   8.110 -1.5779  0.2325  0.0715
 3811TIP3   OH228004   4.108   5.770   0.393  0.2718  0.1012  0.1452
 3811TIP3    H128005   4.075   5.753   0.481  2.2388  1.7423  1.2903
 3811TIP3    H228006   4.030   5.786   0.341 -0.9003  0.0476  1.8035
 3812TIP3   OH228007   3.563   5.684   0.450  0.2010  0.2370 -0.4149
 3812TIP3    H128008   3.554   5.620   0.520 -1.9063  1.7486  0.7969
 3812TIP3    H228009   3.655   5.711   0.454  0.4067 -0.5802  0.9656
 3813TIP3   OH228010   1.296   4.846   7.272 -0.3840  0.4278  0.4365
 3813TIP3    H128011   1.226   4.786   7.298 -1.2648 -0.0291 -2.6458
 3813TIP3    H228012   1.308   4.902   7.349 -1.3986 -1.9225  2.4625
 3814TIP3   OH228013   4.996   6.210   7.698 -0.0831  0.2979  0.0340
 3814TIP3    H128014   5.074   6.172   7.657  0.0060  0.1219  0.3670
 3814TIP3    H228015   5.001   6.184   7.790 -1.5312 -1.3998 -0.2941
 3815TIP3   OH228016   3.202   1.622   0.903 -0.0886  0.2034  0.1271
 3815TIP3    H128017   3.136   1.654   0.842  2.4530  1.5402 -2.1393
 3815TIP3    H228018   3.229   1.699   0.952 -0.2511 -0.3561  1.1299
 3816TIP3   OH228019   2.365   5.704   2.219 -0.5637  0.3932 -0.0425
 3816TIP3    H128020   2.443   5.736   2.174 -0.0969 -0.5711  0.0687
 3816TIP3    H228021   2.297   5.768   2.197  0.1497  1.0151 -0.4771
 3817TIP3   OH228022   6.129   1.548   8.661 -0.1108  0.0820 -0.2175
 3817TIP3    H128023   6.215   1.590   8.658  1.1610 -1.9159  2.6645
 3817TIP3    H228024   6.086   1.587   8.737 -1.9942  1.3053 -1.8283
 3818TIP3   OH228025   2.222   4.435   8.653  0.1107  0.0196 -0.2863
 3818TIP3    H128026   2.256   4.361   8.603 -0.2854 -0.8575  0.7029
 3818TIP3    H228027   2.128   4.421   8.656 -0.0890  1.0807 -0.8675
 3819TIP3   OH228028   1.858   6.221   0.478 -0.0001  0.0341  0.2085
 3819TIP3    H128029   1.907   6.275   0.415 -0.1473 -0.2529 -0.1563
 3819TIP3    H228030   1.800   6.168   0.423  0.5773 -0.9363  0.5088
 3820TIP3   OH228031   2.320   3.119   1.466  0.0531 -0.2443  0.0716
 3820TIP3    H128032   2.231   3.155   1.463 -0.0300 -0.4345  0.2348
 3820TIP3    H228033   2.372   3.187   1.509  0.1934  0.2883 -0.9179
 3821TIP3   OH228034   3.489   0.133   0.871 -0.0538  0.1658 -0.0813
 3821TIP3    H128035   3.525   0.215   0.905 -0.7545  0.2847  0.3893
 3821TIP3    H228036   3.394   0.148   0.868 -0.1248 -0.3619 -0.7100
 3822TIP3   OH228037   4.917   5.576   8.026 -0.2092 -0.5518  0.4799
 3822TIP3    H128038   5.012   5.585   8.013 -0.0503 -1.8465  0.5468
 3822TIP3    H228039   4.884   5.665   8.024  0.5654 -0.1962 -3.0748
 3823TIP3   OH228040   5.714   5.139   7.651 -0.0105  0.3556  0.0835
 3823TIP3    H128041   5.771   5.183   7.714 -0.9922  0.9526  0.5660
 3823TIP3    H228042   5.682   5.209   7.595 -1.9263  0.3509  1.1196
 3824TIP3   OH228043   5.570   4.838   8.702 -0.6484  0.0040 -0.9630
 3824TIP3    H128044   5.531   4.894   8.635 -0.1154 -1.1461 -2.2787
 3824TIP3    H228045   5.499   4.782   8.732 -0.2991 -1.5019 -2.7432
 3825TIP3   OH228046   2.690   0.500   7.818 -0.0768  0.2418  0.2603
 3825TIP3    H128047   2.595   0.491   7.817 -0.0797  0.2967  0.0596
 3825TIP3    H228048   2.723   0.410   7.820 -0.1353  0.2256  0.4512
 3826TIP3   OH228049   4.952   5.159   0.443 -0.3796 -0.0777 -0.1812
 3826TIP3    H128050   4.932   5.252   0.435  0.3129  0.0369 -0.6457
 3826TIP3    H228051   4.925   5.136   0.532 -0.4427  0.5914 -0.0228
 3827TIP3   OH228052   0.908   1.376   7.788 -0.2051 -0.3674  0.0921
 3827TIP3    H128053   0.984   1.420   7.827 -0.0205  0.3795 -1.0634
 3827TIP3    H228054   0.937   1.286   7.774  0.2779 -0.2277  0.1784
 3828TIP3   OH228055   4.612   3.620   1.201 -0.0598  0.1879 -0.2572
 3828TIP3    H128056   4.686   3.672   1.234  1.3267 -0.8520 -1.5686
 3828TIP3    H228057   4.653   3.540   1.168 -2.1467 -2.0079  2.0653
 3829TIP3   OH228058   4.759   1.795   7.674  0.1300 -0.5098  0.0968
 3829TIP3    H128059   4.845   1.783   7.714  1.3704 -1.5800 -2.6378
 3829TIP3    H228060   4.698   1.798   7.748  2.3207 -1.2568  2.0489
 3830TIP3   OH228061   0.471   5.602   0.862  0.0601  0.7491  0.4359
 3830TIP3    H128062   0.415   5.534   0.824 -0.0459  1.6924 -1.1443
 3830TIP3    H228063   0.414   5.649   0.922 -0.2399  0.3262  0.4884
 3831TIP3   OH228064   3.312   4.888   2.735 -0.0144  0.7928 -0.0385
 3831TIP3    H128065   3.314   4.872   2.641  0.6103 -0.9774  0.2397
 3831TIP3    H228066   3.399   4.924   2.756  0.5023 -0.4896  0.1018
 3832TIP3   OH228067   6.275   5.836   7.869 -0.0924 -0.1396 -0.0388
 3832TIP3    H128068   6.184   5.806   7.859  0.8370 -2.9046 -1.1236
 3832TIP3    H228069   6.274   5.926   7.835 -2.6523  0.4110  1.2824
 3833TIP3   OH228070   5.616   2.475   6.901 -0.6588 -0.0286 -0.5017
 3833TIP3    H128071   5.628   2.395   6.849  0.4335  0.0359 -0.3701
 3833TIP3    H228072   5.530   2.507   6.875 -0.9786 -1.0757 -0.7958
 3834TIP3   OH228073   2.133   3.214   8.318 -0.1862 -0.1898  0.0864
 3834TIP3    H128074   2.077   3.254   8.252  0.2344  0.6937  0.2511
 3834TIP3    H228075   2.208   3.180   8.270 -1.0803 -1.8393 -0.2031
 3835TIP3   OH228076   5.232   2.790   1.007 -0.0972 -0.0248  0.7780
 3835TIP3    H128077   5.169   2.861   1.017 -1.9513 -1.4860 -0.0322
 3835TIP3    H228078   5.240   2.778   0.912  2.1199  0.6804  0.8035
 3836TIP3   OH228079   0.851   1.702   6.795  0.0579 -0.2304  0.3018
 3836TIP3    H128080   0.916   1.674   6.859  0.0353  1.8039  1.3003
 3836TIP3    H228081   0.782   1.636   6.801  1.1026 -1.3224  0.6826
 3837TIP3   OH228082   5.416   3.601   8.651 -0.1846 -0.3937  0.1403
 3837TIP3    H128083   5.500   3.647   8.658 -0.3196  0.2738 -1.9464
 3837TIP3    H228084   5.370   3.623   8.731  0.8888  0.8045  0.4655
 3838TIP3   OH228085   0.880   2.304   8.377  0.0264  0.6094 -0.0729
 3838TIP3    H128086   0.975   2.296   8.375  0.0486  0.8861 -0.0619
 3838TIP3    H228087   0.852   2.238   8.441  0.1863  0.3160 -0.3005
 3839TIP3   OH228088   0.052   6.445   2.318 -0.0361 -0.5146 -0.3627
 3839TIP3    H128089   0.121   6.392   2.357  1.1519  0.8356 -0.5550
 3839TIP3    H228090  -0.023   6.432   2.376  0.5501 -1.5379  0.1925
 3840TIP3   OH228091   2.867   0.311   8.130  0.1751 -0.0362 -0.3407
 3840TIP3    H128092   2.906   0.397   8.119 -0.4825  0.5452  1.5745
 3840TIP3    H228093   2.773   0.325   8.123 -0.1706  0.0145  2.9486
 3841TIP3   OH228094   4.655   1.878   8.284  0.1619  0.0758 -0.0443
 3841TIP3    H128095   4.668   1.972   8.290  1.8600 -0.0927 -0.3787
 3841TIP3    H228096   4.720   1.849   8.220 -1.3994 -1.1347 -1.1642
 3842TIP3   OH228097   4.625   2.546   2.442 -0.1777  0.3608  0.2539
 3842TIP3    H128098   4.588   2.587   2.520 -1.1393  1.9260 -0.9622
 3842TIP3    H228099   4.552   2.539   2.381  0.6099 -0.5613 -0.6336
 3843TIP3   OH228100   1.115   4.623   8.362 -0.0681  0.8142  0.3545
 3843TIP3    H128101   1.165   4.694   8.322  0.7258 -0.2695 -0.6579
 3843TIP3    H228102   1.162   4.544   8.336  0.5897  0.0016  3.5712
 3844TIP3   OH228103   4.763   1.124   7.706 -0.8378  0.3147 -0.2789
 3844TIP3    H128104   4.785   1.034   7.683  2.2537  0.6042  0.9990
 3844TIP3    H228105   4.798   1.176   7.634  0.4869  0.6384  0.5608
 3845TIP3   OH228106   0.155   2.852   8.234  0.1871  0.1819 -0.0478
 3845TIP3    H128107   0.074   2.801   8.233  1.3496 -1.8063  0.8543
 3845TIP3    H228108   0.135   2.928   8.289 -1.8848  1.3258 -2.2172
 3846TIP3   OH228109   5.058   4.051   0.806  0.2477  0.9104 -0.2995
 3846TIP3    H128110   4.978   3.998   0.803  0.7816  0.1467 -2.0014
 3846TIP3    H228111   5.085   4.048   0.898 -2.0857  1.8703  0.4943
 3847TIP3   OH228112   3.594   4.244   1.637 -0.2517  0.1048 -0.3452
 3847TIP3    H128113   3.576   4.338   1.635 -1.2056 -0.0411  0.6165
 3847TIP3    H228114   3.690   4.238   1.635 -0.1624  1.1204  0.1981
 3848TIP3   OH228115   5.801   1.646   7.335  0.1270 -0.7290 -0.3808
 3848TIP3    H128116   5.831   1.632   7.245 -3.2513 -0.6204 -1.6702
 3848TIP3    H228117   5.726   1.587   7.344 -0.4607  0.2674  1.8957
 3849TIP3   OH228118   2.264   1.540   1.095 -0.0050  0.0493 -0.0014
 3849TIP3    H128119   2.310   1.464   1.130 -1.0576 -0.4420  0.3508
 3849TIP3    H228120   2.330   1.609   1.094  0.1947 -0.0220  2.5164
 3850TIP3   OH228121   4.608   3.029   0.700  0.1487 -0.1657  0.3371
 3850TIP3    H128122   4.655   2.956   0.658  0.3201  0.9828 -1.6009
 3850TIP3    H228123   4.651   3.040   0.785  1.1115 -1.3479  0.0254
 3851TIP3   OH228124   3.177   2.234   2.090  0.3128  0.0083  0.2046
 3851TIP3    H128125   3.271   2.231   2.073  0.1698 -0.5635 -0.5147
 3851TIP3    H228126   3.169   2.210   2.183  0.7372 -2.1267 -0.2697
 3852TIP3   OH228127   0.384   0.968   8.701 -0.0554 -0.3953  0.0342
 3852TIP3    H128128   0.430   1.026   8.761 -1.5089 -0.6875  1.5065
 3852TIP3    H228129   0.400   0.880   8.734 -0.1042 -0.6367 -0.5668
 3853TIP3   OH228130   4.933   2.396   2.373 -0.1341 -0.5695  0.5607
 3853TIP3    H128131   4.985   2.316   2.364  1.2791  0.1300  1.9982
 3853TIP3    H228132   4.993   2.460   2.411 -1.4318  0.9800  0.1273
 3854TIP3   OH228133   1.825   3.683   7.500  0.0509 -0.4046 -0.1333
 3854TIP3    H128134   1.868   3.615   7.552  1.0157 -0.2226 -0.6525
 3854TIP3    H228135   1.814   3.643   7.413 -1.0780 -0.5340  0.0650
 3855TIP3   OH228136   5.429   2.495   7.802  0.3165 -0.0747  0.4120
 3855TIP3    H128137   5.495   2.435   7.769  0.4788  0.0902  0.4339
 3855TIP3    H228138   5.478   2.559   7.853  0.2676  0.6838 -0.4753
 3856TIP3   OH228139   5.276   6.309   3.056 -0.2797 -0.3411  0.1744
 3856TIP3    H128140   5.243   6.230   3.013  1.2839  0.0724 -1.9817
 3856TIP3    H228141   5.371   6.301   3.051 -0.0610  0.7063  1.8650
 3857TIP3   OH228142   5.718   0.214   8.444 -0.0424 -0.1976 -0.0903
 3857TIP3    H128143   5.684   0.146   8.503 -0.0515  0.5786  0.8224
 3857TIP3    H228144   5.671   0.293   8.470  3.1168  1.2039  1.9594
 3858TIP3   OH228145   1.488   0.359   7.498  0.1889  0.2637  0.3764
 3858TIP3    H128146   1.421   0.388   7.559  0.9039  0.6530  0.9928
 3858TIP3    H228147   1.518   0.275   7.533 -1.0213 -0.6688 -0.7337
 3859TIP3   OH228148   4.413   0.372   6.851 -0.2818  0.1448  0.2374
 3859TIP3    H128149   4.403   0.338   6.940  2.1694 -0.7361  0.2505
 3859TIP3    H228150   4.415   0.294   6.795  0.6370  0.5184 -0.2811
 3860TIP3   OH228151   3.845   4.498   8.001 -0.3451  0.8403  0.3583
 3860TIP3    H128152   3.794   4.516   8.080  0.5957  1.4135  0.8578
 3860TIP3    H228153   3.892   4.417   8.021 -2.4155 -0.7489 -0.8103
 3861TIP3   OH228154   1.254   4.439   8.201  0.1466 -0.0419 -0.5212
 3861TIP3    H128155   1.349   4.429   8.202  0.2413  0.6456 -1.5142
 3861TIP3    H228156   1.221   4.359   8.159  0.0466 -1.6629  2.3988
 3862TIP3   OH228157   5.787   4.142   1.416  0.0672 -0.7010  0.2737
 3862TIP3    H128158   5.743   4.142   1.331  0.5215  0.6850  0.0237
 3862TIP3    H228159   5.874   4.178   1.399 -0.6921  2.1305  1.7056
 3863TIP3   OH228160   2.015   5.233   0.299 -0.6136 -0.0990 -0.4954
 3863TIP3    H128161   2.033   5.142   0.275 -1.2145 -1.2396  2.8719
 3863TIP3    H228162   2.101   5.269   0.321 -0.5593 -0.3411 -0.3092
 3864TIP3   OH228163   0.711   5.002   6.045  0.2898 -0.5013 -0.4761
 3864TIP3    H128164   0.713   5.074   6.108 -0.4308  1.4754 -2.5724
 3864TIP3    H228165   0.619   4.978   6.040  0.3380 -0.6049 -0.8346
 3865TIP3   OH228166   2.420   1.066   0.830  0.0879  0.0281 -0.1503
 3865TIP3    H128167   2.496   1.088   0.883 -0.5151  2.0484 -0.0084
 3865TIP3    H228168   2.416   1.136   0.764 -1.7769  0.1770  0.0402
 3866TIP3   OH228169   3.164   4.284   2.418  0.4940 -0.0949 -0.9349
 3866TIP3    H128170   3.203   4.220   2.477  0.0073 -3.1223 -3.6825
 3866TIP3    H228171   3.229   4.355   2.414  2.7698 -2.0160 -0.4754
 3867TIP3   OH228172   2.937   3.792   0.833 -0.0440  0.4718 -0.3724
 3867TIP3    H128173   2.899   3.841   0.760 -1.6312  0.1894  0.2366
 3867TIP3    H228174   2.869   3.731   0.860  0.2630  0.9774  1.7534
 3868TIP3   OH228175   6.145   5.783   1.886 -0.3657  0.6397  1.1571
 3868TIP3    H128176   6.103   5.699   1.869  0.2770  0.2769  1.3321
 3868TIP3    H228177   6.163   5.783   1.980  0.2938  0.6577  1.0366
 3869TIP3   OH228178   5.982   0.520   8.528  0.2614 -0.2086 -0.2819
 3869TIP3    H128179   5.975   0.612   8.552  0.6718 -0.4503  0.7985
 3869TIP3    H228180   5.942   0.473   8.600  1.7464 -0.9646  0.0864
 3870TIP3   OH228181   5.140   4.540   2.303  0.8749 -0.1626  0.0932
 3870TIP3    H128182   5.049   4.516   2.320  0.6387  0.9091  0.4285
 3870TIP3    H228183   5.179   4.462   2.263 -0.7615  0.0836 -2.1464
 3871TIP3   OH228184   1.415   1.646   0.700 -0.2691 -0.3096  0.1484
 3871TIP3    H128185   1.479   1.577   0.687  0.4675  0.5877 -1.2325
 3871TIP3    H228186   1.342   1.624   0.642  1.0302  1.2798 -2.2683
 3872TIP3   OH228187   3.174   2.557   0.820  0.1102  0.0452  0.1734
 3872TIP3    H128188   3.110   2.609   0.770  0.8123  0.8956  0.1396
 3872TIP3    H228189   3.135   2.550   0.907 -0.0437  0.5449  0.1513
 3873TIP3   OH228190   4.882   6.044   1.227  0.5266  0.4291  0.0384
 3873TIP3    H128191   4.946   6.114   1.221  0.1065  0.8883  0.7344
 3873TIP3    H228192   4.910   5.991   1.302  0.4533  0.2588 -0.0525
 3874TIP3   OH228193   2.753   5.055   9.076 -0.3345  0.1741  0.2914
 3874TIP3    H128194   2.778   5.127   9.135 -1.2622  1.9467 -1.3453
 3874TIP3    H228195   2.674   5.086   9.033  0.4555 -0.8765 -2.0878
 3875TIP3   OH228196   5.075   5.297   1.879  0.3688 -0.9154 -0.6576
 3875TIP3    H128197   5.093   5.311   1.972 -1.0216 -0.8072 -0.3858
 3875TIP3    H228198   5.012   5.365   1.856  0.1037 -1.4234 -1.4907
 3876TIP3   OH228199   5.312   2.268  -0.002 -0.5157 -0.0757 -0.2317
 3876TIP3    H128200   5.388   2.323  -0.020 -0.9591  1.2327  1.6039
 3876TIP3    H228201   5.256   2.322   0.054 -1.9619 -1.6537 -0.0777
 3877TIP3   OH228202   5.638   1.023   0.072  0.4741 -0.4210 -0.8392
 3877TIP3    H128203   5.726   0.992   0.053  0.8677  0.4879 -0.5298
 3877TIP3    H228204   5.623   1.000   0.164  1.8583  2.7000  0.2913
 3878TIP3   OH228205   3.440   0.559   0.975 -0.1640 -0.4353 -0.9779
 3878TIP3    H128206   3.355   0.518   0.991 -0.4531  0.6090  0.2425
 3878TIP3    H228207   3.477   0.508   0.902 -1.2551 -1.7321 -0.6676
 3879TIP3   OH228208   6.429   3.374   7.768  0.3874 -0.3679 -0.1936
 3879TIP3    H128209   6.360   3.429   7.804 -1.2926 -2.8502  0.6638
 3879TIP3    H228210   6.503   3.388   7.828 -0.6715 -0.5329  1.2204
 3880TIP3   OH228211   6.142   5.468   1.777  0.3169 -0.4564  0.0118
 3880TIP3    H128212   6.115   5.423   1.857  0.9548  0.3470  0.7098
 3880TIP3    H228213   6.068   5.524   1.755  1.0191  1.1532  1.4720
 3881TIP3   OH228214   2.450   3.062   8.276 -0.4369  0.1528 -0.5526
 3881TIP3    H128215   2.470   2.985   8.329 -0.2107  0.5523 -0.0542
 3881TIP3    H228216   2.486   3.135   8.325 -1.8194  0.7347 -0.3522
 3882TIP3   OH228217   6.279   3.996   0.556 -0.3503 -0.4221 -0.2609
 3882TIP3    H128218   6.324   3.913   0.571  0.9905  0.3163 -0.0361
 3882TIP3    H228219   6.341   4.063   0.586 -1.2186  0.6812 -0.8416
 3883TIP3   OH228220   5.078   2.366   1.180 -0.2120  0.1650  0.4698
 3883TIP3    H128221   5.142   2.435   1.162 -1.6912  1.7083  0.9438
 3883TIP3    H228222   5.055   2.332   1.094 -0.4910  1.2340  0.1089
 3884TIP3   OH228223   5.694   0.131   8.176  0.3415 -0.1075 -0.4443
 3884TIP3    H128224   5.679   0.173   8.261  1.7606  0.1308 -0.2836
 3884TIP3    H228225   5.785   0.152   8.155  0.9530 -2.5867 -0.6453
 3885TIP3   OH228226   4.043   0.123   7.640 -0.5174  0.3760 -0.3448
 3885TIP3    H128227   4.003   0.046   7.680 -0.1659  0.2478 -0.2369
 3885TIP3    H228228   4.135   0.098   7.626  0.3314  1.7073  2.2262
 3886TIP3   OH228229   4.901   1.187   2.667  0.1087 -0.3120 -0.2362
 3886TIP3    H128230   4.837   1.204   2.736  1.6728 -0.1946  1.2454
 3886TIP3    H228231   4.894   1.263   2.610 -1.8498 -0.8302 -0.7880
 3887TIP3   OH228232   2.448   0.152   6.549 -0.7888  0.0365 -0.2103
 3887TIP3    H128233   2.537   0.186   6.543  0.2213 -2.5882 -1.8461
 3887TIP3    H228234   2.450   0.089   6.621 -1.3837  0.1147 -0.1196
 3888TIP3   OH228235   4.749   3.142   2.959  0.1432 -0.0267 -0.3906
 3888TIP3    H128236   4.827   3.110   2.913 -0.4359 -1.4524 -0.4214
 3888TIP3    H228237   4.756   3.237   2.953  1.9986 -0.1048 -0.1920
 3889TIP3   OH228238   2.243   6.293   0.416 -0.5152  0.0017 -0.1517
 3889TIP3    H128239   2.317   6.249   0.376 -1.0701 -2.5003  1.3756
 3889TIP3    H228240   2.166   6.259   0.369 -0.9733 -0.9524  1.2178
 3890TIP3   OH228241   4.564   0.425   8.456  0.0610 -0.2453 -0.4833
 3890TIP3    H128242   4.524   0.511   8.465 -0.4993 -0.6668  1.4021
 3890TIP3    H228243   4.658   0.444   8.444  0.4747  0.6689  3.0469
 3891TIP3   OH228244   5.853   5.105   7.362  0.3787  0.1453  0.5105
 3891TIP3    H128245   5.886   5.162   7.431 -2.0539  1.3587  0.7789
 3891TIP3    H228246   5.846   5.162   7.285 -1.9281  0.2595  0.7322
 3892TIP3   OH228247   0.586   3.063   7.853  0.2237  0.3589 -0.0707
 3892TIP3    H128248   0.594   3.068   7.949  0.3979  0.4421 -0.0898
 3892TIP3    H228249   0.491   3.065   7.837  0.1242 -1.0064  0.1719
 3893TIP3   OH228250   0.802   0.854   2.325 -0.0760 -0.3537  0.0755
 3893TIP3    H128251   0.747   0.806   2.386  1.7787 -0.7123  1.5596
 3893TIP3    H228252   0.815   0.939   2.367  0.6028 -0.3250 -0.1807
 3894TIP3   OH228253   6.378   2.240   1.684 -0.1164  0.1779 -0.3184
 3894TIP3    H128254   6.368   2.162   1.630  0.0460  0.0035 -0.1019
 3894TIP3    H228255   6.308   2.299   1.656 -0.2168 -0.0321 -0.5066
 3895TIP3   OH228256   1.578   1.746   0.334 -0.0610  0.2551 -0.1738
 3895TIP3    H128257   1.580   1.831   0.290  0.8719 -0.3800 -1.4111
 3895TIP3    H228258   1.546   1.685   0.268  0.3994 -0.5665  0.3452
 3896TIP3   OH228259   2.552   4.253   7.069 -0.1012  0.7741  0.8373
 3896TIP3    H128260   2.505   4.240   6.986 -0.0794  1.9983  0.6029
 3896TIP3    H228261   2.635   4.293   7.042  0.2851  0.3538  1.3933
 3897TIP3   OH228262   2.844   4.107   9.109  0.3834 -0.4429 -0.4964
 3897TIP3    H128263   2.783   4.033   9.102 -0.6357  0.3390 -0.2171
 3897TIP3    H228264   2.791   4.178   9.145  1.4437  0.3111 -0.3703
 3898TIP3   OH228265   1.327   2.437   9.397  0.0130 -0.2116 -0.3013
 3898TIP3    H128266   1.272   2.514   9.385 -1.4234 -1.1677 -0.1235
 3898TIP3    H228267   1.307   2.382   9.321  0.7404 -0.5762 -0.2332
 3899TIP3   OH228268   0.346   5.342   1.828 -0.0505  0.3094 -0.4400
 3899TIP3    H128269   0.434   5.348   1.864 -0.2345  0.4111  0.0058
 3899TIP3    H228270   0.350   5.390   1.745 -0.4024  2.9891  0.9823
 3900TIP3   OH228271   2.777   5.636   7.053 -0.3222 -0.1565 -0.4722
 3900TIP3    H128272   2.830   5.557   7.055  1.4247  0.8744 -2.0517
 3900TIP3    H228273   2.716   5.623   6.980 -1.1871 -0.6843  0.3225
 3901TIP3   OH228274   5.826   4.612   6.536 -0.1124  0.1865  0.2844
 3901TIP3    H128275   5.738   4.603   6.500 -0.6949 -1.3372  1.9208
 3901TIP3    H228276   5.824   4.693   6.587  0.5313  2.0151 -2.4061
 3902TIP3   OH228277   1.968   3.033   0.174  0.4363 -0.3074  0.2799
 3902TIP3    H128278   1.961   3.061   0.266 -0.6153  2.6738 -0.5935
 3902TIP3    H228279   1.902   2.964   0.165  0.7997 -0.9063  1.8089
 3903TIP3   OH228280   0.938   3.607   1.296 -0.1514  0.0694 -0.5006
 3903TIP3    H128281   0.999   3.590   1.225  1.2684 -0.6741  0.8392
 3903TIP3    H228282   0.956   3.539   1.361  0.2580  2.0626  1.6177
 3904TIP3   OH228283   4.544   6.231   8.143  0.0744  0.3627 -0.5278
 3904TIP3    H128284   4.548   6.318   8.182  0.4157 -0.5054  1.4880
 3904TIP3    H228285   4.633   6.197   8.152 -0.2029 -0.4298 -0.7374
 3905TIP3   OH228286   1.910   1.738   1.736 -0.6748  0.1099 -0.2067
 3905TIP3    H128287   1.862   1.821   1.727 -0.5948 -0.0103 -2.1767
 3905TIP3    H228288   1.862   1.691   1.804 -0.0648  2.1790  1.7937
 3906TIP3   OH228289   4.217   4.425   2.654 -0.1774 -0.2405 -0.6029
 3906TIP3    H128290   4.288   4.459   2.600  0.0949 -1.6942 -1.2239
 3906TIP3    H228291   4.244   4.443   2.744  0.3432  0.3919 -0.8810
 3907TIP3   OH228292   1.532   0.617   0.051  0.2230  0.2783 -0.0247
 3907TIP3    H128293   1.509   0.577  -0.033  0.7835  1.0841 -0.5821
 3907TIP3    H228294   1.456   0.600   0.107  0.0426 -0.6866 -0.5358
 3908TIP3   OH228295   2.056   6.252   1.875 -0.0990  0.3762 -0.2581
 3908TIP3    H128296   1.971   6.281   1.843 -0.4721  0.8574  1.0721
 3908TIP3    H228297   2.118   6.319   1.846 -0.2241  0.2240 -0.8950
 3909TIP3   OH228298   1.827   1.582   9.117  0.2705 -0.3226 -0.6492
 3909TIP3    H128299   1.916   1.619   9.118  0.8988 -1.7921 -0.3988
 3909TIP3    H228300   1.787   1.615   9.198  1.3875 -1.4928  0.4242
 3910TIP3   OH228301   1.545   3.812   2.456  0.2576 -0.5648 -0.5238
 3910TIP3    H128302   1.538   3.829   2.550 -0.1030 -1.6300 -0.3411
 3910TIP3    H228303   1.526   3.718   2.448  1.6189 -0.7758 -1.5100
 3911TIP3   OH228304   4.482   1.117   7.751  0.8251 -0.3030 -0.3325
 3911TIP3    H128305   4.572   1.147   7.762  0.1827  1.9872 -0.6795
 3911TIP3    H228306   4.471   1.109   7.656  0.3680  0.5423 -0.3634
 3912TIP3   OH228307   6.202   5.263   0.056  0.0707 -0.2488 -0.1038
 3912TIP3    H128308   6.119   5.223   0.029  0.9936 -1.1332 -1.7862
 3912TIP3    H228309   6.177   5.329   0.121 -1.8869 -0.8411 -0.1966
 3913TIP3   OH228310   1.225   5.469   8.236  0.2367 -0.5517 -0.5525
 3913TIP3    H128311   1.307   5.500   8.199 -0.1753  0.1455 -0.8971
 3913TIP3    H228312   1.236   5.481   8.331  0.8814 -1.3508 -0.5103
 3914TIP3   OH228313   1.054   4.868   7.503  0.3726  0.5295  0.1389
 3914TIP3    H128314   1.041   4.809   7.429  3.1047 -0.4453  0.3343
 3914TIP3    H228315   1.040   4.955   7.466  0.8423  0.0235 -1.3305
 3915TIP3   OH228316   5.910   2.871   1.208 -0.3628  0.0419 -0.6758
 3915TIP3    H128317   5.911   2.776   1.207 -0.6300 -0.0225  1.4713
 3915TIP3    H228318   5.894   2.896   1.116 -1.0531 -1.9674 -1.1498
 3916TIP3   OH228319   1.076   4.756   2.382 -0.3194 -0.2821  0.0632
 3916TIP3    H128320   1.071   4.693   2.454 -1.2933 -0.2212  0.0693
 3916TIP3    H228321   1.121   4.710   2.311 -1.8375 -1.3238 -0.2642
 3917TIP3   OH228322   1.761   3.659   8.644  0.2209 -0.5548  0.7104
 3917TIP3    H128323   1.784   3.712   8.567 -1.3612 -1.6690 -0.5732
 3917TIP3    H228324   1.802   3.574   8.628  0.7603 -0.4864  1.6307
 3918TIP3   OH228325   1.242   2.958   2.056 -0.0960 -0.4388  0.7209
 3918TIP3    H128326   1.288   2.994   1.980 -1.0042 -1.3734 -0.3039
 3918TIP3    H228327   1.198   3.034   2.095 -1.6609 -0.2957 -1.1715
 3919TIP3   OH228328   2.599   2.790   1.388  0.3926 -0.0645 -0.0132
 3919TIP3    H128329   2.623   2.698   1.386  2.2543  0.3681  0.3279
 3919TIP3    H228330   2.540   2.801   1.313 -1.0752 -1.8021  0.8091
 3920TIP3   OH228331   6.254   2.756   7.573  0.2527  0.3347  0.0484
 3920TIP3    H128332   6.204   2.835   7.592  1.1368  1.0806 -0.6234
 3920TIP3    H228333   6.208   2.687   7.621 -1.2571  1.0245 -0.3120
 3921TIP3   OH228334   0.282   5.512   0.671  0.1397  0.1238 -0.1513
 3921TIP3    H128335   0.316   5.562   0.597  0.2264  0.0982 -0.1289
 3921TIP3    H228336   0.305   5.421   0.651 -0.3675  0.0453 -0.3829
 3922TIP3   OH228337   5.367   5.753   0.140 -0.2224 -0.0998 -0.0161
 3922TIP3    H128338   5.374   5.848   0.150 -1.4238  0.1947 -1.5805
 3922TIP3    H228339   5.418   5.733   0.062 -1.0080 -0.5452 -0.4247
 3923TIP3   OH228340   0.759   4.101   1.021  0.0864  0.2029 -0.1582
 3923TIP3    H128341   0.698   4.136   1.087  1.1822 -1.0397  1.5948
 3923TIP3    H228342   0.704   4.047   0.964 -0.3828 -1.7481  2.0056
 3924TIP3   OH228343   0.776   2.869   2.823 -0.1714  0.0603 -0.7368
 3924TIP3    H128344   0.811   2.800   2.767 -0.9355 -1.1409  0.2099
 3924TIP3    H228345   0.826   2.862   2.904 -0.6853  0.1786 -0.4011
 3925TIP3   OH228346   4.124   4.101   7.992  0.1644 -0.3488 -0.4498
 3925TIP3    H128347   4.146   4.178   8.044 -1.5048 -1.1415  1.6139
 3925TIP3    H228348   4.203   4.046   7.997  0.2612 -0.1419  0.8343
 3926TIP3   OH228349   1.258   3.982   2.059 -0.3091  0.4316 -0.1691
 3926TIP3    H128350   1.189   3.923   2.087 -0.4226 -0.2864 -1.8768
 3926TIP3    H228351   1.339   3.938   2.084 -0.4181  0.3797  0.1004
 3927TIP3   OH228352   3.638   5.539   8.084 -0.4669 -0.2057 -0.3605
 3927TIP3    H128353   3.576   5.468   8.104 -1.3486  1.0222  1.6602
 3927TIP3    H228354   3.634   5.595   8.161  0.8367  1.6070 -1.5496
 3928TIP3   OH228355   1.347   5.692   1.763  0.7120 -0.6370  0.7294
 3928TIP3    H128356   1.344   5.619   1.701  0.5983 -1.5891  1.8110
 3928TIP3    H228357   1.419   5.747   1.732 -0.8011  0.1705 -1.5541
 3929TIP3   OH228358   0.259   3.842   6.752 -0.1710  0.0477 -0.2948
 3929TIP3    H128359   0.301   3.794   6.681  2.6090  0.5562  0.8699
 3929TIP3    H228360   0.178   3.876   6.714  0.4902 -0.9183 -2.7430
 3930TIP3   OH228361   6.079   4.897   8.597 -0.0064 -0.0714 -0.2073
 3930TIP3    H128362   6.085   4.871   8.689  3.0344  0.2019 -0.2034
 3930TIP3    H228363   5.988   4.921   8.584 -1.8614 -5.0176  1.3380
 3931TIP3   OH228364   4.051   3.901   0.395 -0.3966 -0.3909  0.2099
 3931TIP3    H128365   4.076   3.945   0.314 -1.0554  1.4593  0.9668
 3931TIP3    H228366   3.961   3.871   0.379 -0.4599 -0.1925  0.1945
 3932TIP3   OH228367   1.269   4.228   1.359  0.0005 -0.9100 -0.3301
 3932TIP3    H128368   1.241   4.147   1.400  2.2141 -1.2678  0.6095
 3932TIP3    H228369   1.258   4.212   1.265 -0.5984 -1.8683 -0.1134
 3933TIP3   OH228370   1.133   2.091   1.421 -0.5485 -0.4632  0.4068
 3933TIP3    H128371   1.165   2.036   1.349 -0.3081  0.4545 -0.2079
 3933TIP3    H228372   1.037   2.085   1.415 -0.5709  0.5884 -0.8084
 3934TIP3   OH228373   2.205   6.449   0.156 -0.2533 -0.2873 -0.0384
 3934TIP3    H128374   2.243   6.388   0.092  0.7442  1.9218 -1.6944
 3934TIP3    H228375   2.116   6.463   0.125  0.1965  0.7000 -0.9229
 3935TIP3   OH228376   1.775   0.812   3.108  0.2236  0.1495 -0.7508
 3935TIP3    H128377   1.842   0.760   3.065 -2.3645 -1.4064 -3.2317
 3935TIP3    H228378   1.747   0.876   3.042 -0.9347  0.5829  0.1242
 3936TIP3   OH228379   2.707   3.691   7.601  0.1743  0.0914  0.4041
 3936TIP3    H128380   2.673   3.743   7.674 -0.3489  0.0268  0.2159
 3936TIP3    H228381   2.801   3.706   7.602  0.0103  1.3197  0.1505
 3937TIP3   OH228382   6.072   3.044   7.971  0.3995  0.0410 -0.1332
 3937TIP3    H128383   6.016   2.977   8.012 -1.0984  2.0162  1.1992
 3937TIP3    H228384   6.069   3.022   7.877  1.2895 -2.6642  0.3608
 3938TIP3   OH228385   0.382   1.088   1.605 -0.1762 -0.2536  0.0963
 3938TIP3    H128386   0.313   1.077   1.669 -0.5584 -1.8945 -0.5468
 3938TIP3    H228387   0.353   1.036   1.529  1.5383 -0.6254 -0.3484
 3939TIP3   OH228388   3.207   3.307   6.855 -0.2143 -0.3583  0.8145
 3939TIP3    H128389   3.186   3.310   6.762 -0.3192 -0.0120  0.8477
 3939TIP3    H228390   3.224   3.215   6.873  3.4019 -0.0859 -0.3621
 3940TIP3   OH228391   3.671   3.501   1.470  0.9178  0.4436 -0.0019
 3940TIP3    H128392   3.669   3.562   1.544 -0.5562  0.7342 -0.2644
 3940TIP3    H228393   3.763   3.473   1.466  1.0644  0.5211  1.8437
 3941TIP3   OH228394   2.648   2.784   6.453  0.1632 -0.4263 -0.4762
 3941TIP3    H128395   2.724   2.781   6.396  0.6476 -2.0382  0.1934
 3941TIP3    H228396   2.668   2.853   6.516  1.4084 -1.2840  0.1088
 3942TIP3   OH228397   3.273   4.887   1.330 -0.1873  0.5539  0.0722
 3942TIP3    H128398   3.311   4.833   1.260  0.7343  2.5915 -1.0859
 3942TIP3    H228399   3.299   4.977   1.308 -1.3425  1.4586  2.1179
 3943TIP3   OH228400   0.332   0.697   7.181 -0.4404 -0.6002  0.1317
 3943TIP3    H128401   0.262   0.719   7.242 -1.0632 -0.9724 -0.4385
 3943TIP3    H228402   0.300   0.619   7.136 -1.1344  1.1107 -2.5173
 3944TIP3   OH228403   2.266   1.247   2.046  0.2522  0.0901 -0.7874
 3944TIP3    H128404   2.201   1.279   1.984 -0.0398  0.1953 -0.4321
 3944TIP3    H228405   2.349   1.250   1.999  0.0184  0.0773 -1.2021
 3945TIP3   OH228406   2.884   0.034   2.826  0.1707 -0.9968  0.1925
 3945TIP3    H128407   2.976   0.062   2.822 -0.6728  1.9994 -2.2033
 3945TIP3    H228408   2.868  -0.006   2.740 -1.3688  0.9475 -0.4816
 3946TIP3   OH228409   2.563   5.394   8.302 -0.7855  0.2682 -0.0979
 3946TIP3    H128410   2.566   5.375   8.396 -2.8053  0.8323  0.1259
 3946TIP3    H228411   2.634   5.456   8.288 -1.1083  0.9996  1.2913
 3947TIP3   OH228412   3.080   4.172   8.876  0.2152  0.0082 -0.5347
 3947TIP3    H128413   2.988   4.152   8.886  0.4350 -1.3699 -1.0959
 3947TIP3    H228414   3.117   4.162   8.964  0.3020 -2.1445 -0.7583
 3948TIP3   OH228415   5.184   0.518   2.183 -0.0436 -0.1939  0.1748
 3948TIP3    H128416   5.259   0.505   2.241 -1.3711 -0.3707  1.9523
 3948TIP3    H228417   5.108   0.520   2.242 -1.2797  1.8552 -1.3614
 3949TIP3   OH228418   2.577   4.081   8.268 -0.2653 -0.1577 -0.1648
 3949TIP3    H128419   2.545   4.028   8.342 -0.3509  0.1140 -0.0067
 3949TIP3    H228420   2.535   4.166   8.280  0.5842  0.2349  0.0899
 3950TIP3   OH228421   1.092   0.889   7.273 -0.0219 -0.8659  0.3742
 3950TIP3    H128422   1.102   0.983   7.281  0.5899 -0.6490 -2.1646
 3950TIP3    H228423   1.102   0.856   7.363  2.2843  1.2284  0.9913
 3951TIP3   OH228424   6.392   1.936   2.141 -0.3191 -0.1878  0.2537
 3951TIP3    H128425   6.306   1.972   2.164 -1.8174 -2.6354 -1.1145
 3951TIP3    H228426   6.406   1.864   2.203  0.3890 -0.3060 -0.0301
 3952TIP3   OH228427   4.558   3.129   1.710 -0.3707  0.1322  0.0587
 3952TIP3    H128428   4.595   3.129   1.799 -1.8909  0.5141  0.7293
 3952TIP3    H228429   4.512   3.045   1.703 -1.1287  0.5444  0.0267
 3953TIP3   OH228430   0.237   3.480   7.282 -0.3799 -0.0664 -0.4088
 3953TIP3    H128431   0.210   3.507   7.370 -0.7514  0.0836 -0.5664
 3953TIP3    H228432   0.293   3.403   7.296 -0.3583  0.0160 -0.0381
 3954TIP3   OH228433   2.950   6.246   7.790 -0.0042 -0.0642 -0.1999
 3954TIP3    H128434   3.028   6.287   7.753 -0.5861  2.4424  1.1282
 3954TIP3    H228435   2.893   6.231   7.715  0.5312  0.9708 -0.8356
 3955TIP3   OH228436   3.522   5.305   8.141  0.5198 -0.2843 -0.1720
 3955TIP3    H128437   3.509   5.218   8.104  0.9196  0.3465 -1.8756
 3955TIP3    H228438   3.614   5.307   8.167  0.7789 -0.0661 -1.0562
 3956TIP3   OH228439   2.004   0.278   5.836 -0.4066 -0.0481  0.0656
 3956TIP3    H128440   1.941   0.350   5.831 -0.6417 -0.3097 -1.8440
 3956TIP3    H228441   1.958   0.208   5.883 -1.0965  0.1981 -0.2365
 3957TIP3   OH228442   6.159   3.874   9.272 -0.1728  0.3028 -0.1130
 3957TIP3    H128443   6.254   3.865   9.261  0.0866 -0.8440  2.3901
 3957TIP3    H228444   6.148   3.962   9.310  0.2246 -0.4550  1.9195
 3958TIP3   OH228445   3.965   1.425   1.898  0.1623  0.3591 -0.4081
 3958TIP3    H128446   3.920   1.408   1.815  0.1053 -1.0907 -0.0965
 3958TIP3    H228447   3.936   1.355   1.956  2.4719 -0.4038 -0.0684
 3959TIP3   OH228448   3.896   3.305   8.983  0.1912 -0.0728 -0.4423
 3959TIP3    H128449   3.980   3.290   8.938 -0.4446 -1.8858 -1.1263
 3959TIP3    H228450   3.835   3.328   8.913 -0.5273 -1.7180 -0.4160
 3960TIP3   OH228451   6.067   4.359   1.221 -0.3626 -0.2607 -0.6527
 3960TIP3    H128452   6.142   4.419   1.225  0.5522 -1.3037 -1.3880
 3960TIP3    H228453   5.990   4.416   1.227  0.4777  0.9188 -0.7053
 3961TIP3   OH228454   3.589   2.956   7.987  0.0411 -0.8115 -0.1967
 3961TIP3    H128455   3.553   2.954   8.075 -1.9663  2.0475 -0.8046
 3961TIP3    H228456   3.524   2.911   7.934 -0.8219  0.9491 -0.7227
 3962TIP3   OH228457   5.345   3.529   1.094 -0.0214 -0.1689  0.3401
 3962TIP3    H128458   5.327   3.570   1.010  0.2569 -1.5660 -0.4378
 3962TIP3    H228459   5.420   3.471   1.077 -0.3868 -0.9770  1.3614
 3963TIP3   OH228460   1.946   2.640   0.149  0.1321  0.0685 -0.3105
 3963TIP3    H128461   1.879   2.659   0.083  1.3822 -0.0879 -1.6753
 3963TIP3    H228462   2.017   2.599   0.099  1.3761  0.5141  1.0450
 3964TIP3   OH228463   6.379   1.058   1.902  0.1128  0.1619  0.6693
 3964TIP3    H128464   6.424   1.123   1.956  1.4150  0.5188 -0.7586
 3964TIP3    H228465   6.401   0.974   1.943  2.0134  0.3346  0.1298
 3965TIP3   OH228466   4.120   1.505   7.411  0.0275 -0.4682  0.1214
 3965TIP3    H128467   4.101   1.413   7.393 -2.0120 -0.2891  1.1181
 3965TIP3    H228468   4.189   1.503   7.478  0.7570 -1.2147 -0.6181
 3966TIP3   OH228469   5.624   3.653   1.554 -0.3013 -0.9776  0.4975
 3966TIP3    H128470   5.668   3.568   1.557  0.5103 -0.7234 -2.1019
 3966TIP3    H228471   5.559   3.644   1.484  0.5723  0.8468 -0.6045
 3967TIP3   OH228472   4.712   3.980   2.484 -0.2384 -0.0108  0.1573
 3967TIP3    H128473   4.763   4.009   2.408  3.4183 -0.7476  2.1052
 3967TIP3    H228474   4.661   4.056   2.510 -1.8231  0.2086 -3.0285
 3968TIP3   OH228475   2.858   0.030   8.968  0.6136 -0.6342  0.3517
 3968TIP3    H128476   2.940   0.049   9.014 -0.5974  1.1184  1.9455
 3968TIP3    H228477   2.853   0.097   8.900  1.4625 -2.0402 -1.1643
 3969TIP3   OH228478   5.180   3.591   9.261  0.4779  0.3131 -0.3439
 3969TIP3    H128479   5.146   3.679   9.247  1.2291  0.4758 -1.2232
 3969TIP3    H228480   5.248   3.580   9.195 -0.1877 -1.2435 -0.8304
 3970TIP3   OH228481   0.362   6.359   9.368 -0.3767  0.2426 -0.0253
 3970TIP3    H128482   0.356   6.318   9.282  0.6151  0.5712 -0.2646
 3970TIP3    H228483   0.433   6.313   9.411  0.7534  1.6748 -0.2939
 3971TIP3   OH228484   0.296   0.605   0.051  0.3649  0.2935 -0.0685
 3971TIP3    H128485   0.330   0.689   0.082 -0.1831  0.3516  0.3877
 3971TIP3    H228486   0.367   0.543   0.065  0.3505  0.4471  0.7102
 3972TIP3   OH228487   2.654   4.648   0.343 -0.0713 -0.1902  0.1617
 3972TIP3    H128488   2.578   4.704   0.355  1.0663  1.7955 -1.2728
 3972TIP3    H228489   2.637   4.572   0.399 -1.7895  1.4645  2.0600
 3973TIP3   OH228490   1.312   3.356   2.442  0.0705 -0.0922 -0.1956
 3973TIP3    H128491   1.343   3.303   2.515 -0.9294  2.7826  2.5384
 3973TIP3    H228492   1.253   3.299   2.394  1.1407 -2.2379  0.8931
 3974TIP3   OH228493   3.588   1.486   6.943  0.6801  0.1343  0.4903
 3974TIP3    H128494   3.617   1.395   6.942  1.0747  0.1657  2.7750
 3974TIP3    H228495   3.609   1.519   6.856 -0.3290 -2.1900 -0.7248
 3975TIP3   OH228496   2.798   3.727   1.198 -0.2510  0.7309  0.2690
 3975TIP3    H128497   2.736   3.659   1.226 -0.9553  1.6594  1.0331
 3975TIP3    H228498   2.877   3.709   1.248  0.0348 -0.3164 -0.5252
 3976TIP3   OH228499   0.554   0.151   2.898 -0.3581 -0.4166 -0.7577
 3976TIP3    H128500   0.618   0.099   2.849 -0.2444  0.1015 -1.1727
 3976TIP3    H228501   0.474   0.146   2.846  0.0859  1.1262 -1.6894
 3977TIP3   OH228502   2.995   4.419   2.759  0.4494  0.3660  0.3431
 3977TIP3    H128503   2.932   4.456   2.821  2.4746  1.0174  2.1708
 3977TIP3    H228504   3.023   4.494   2.706  0.1657  0.2035 -0.0416
 3978TIP3   OH228505   0.325   6.252   7.751 -0.2751 -0.4620 -0.2362
 3978TIP3    H128506   0.369   6.287   7.829  2.0217 -2.2914 -0.5756
 3978TIP3    H228507   0.238   6.228   7.782 -0.1249  0.7511  1.2393
 3979TIP3   OH228508   4.437   2.587   1.065  0.0125 -0.6272  0.9931
 3979TIP3    H128509   4.374   2.643   1.110  0.0914 -0.6530  1.1323
 3979TIP3    H228510   4.386   2.510   1.039 -0.8185  0.6418 -1.5862
 3980TIP3   OH228511   2.850   3.425   1.491  0.7131 -0.0737 -0.0489
 3980TIP3    H128512   2.789   3.491   1.523 -0.8092 -0.8367 -1.2279
 3980TIP3    H228513   2.860   3.364   1.564  1.3635  0.9187  0.7074
 3981TIP3   OH228514   4.568   4.198   1.384  0.6137  0.3604  0.0826
 3981TIP3    H128515   4.502   4.266   1.367 -1.2796 -1.2984  0.4027
 3981TIP3    H228516   4.596   4.214   1.474  0.7997  1.1929 -0.1143
 3982TIP3   OH228517   1.413   2.299   0.661 -0.2210 -0.2524  0.0780
 3982TIP3    H128518   1.342   2.363   0.656  0.1080  0.0867 -0.3186
 3982TIP3    H228519   1.375   2.224   0.706 -0.9280 -0.2124 -0.4544
 3983TIP3   OH228520   4.586   0.967   0.097 -0.1662 -0.0938  0.3915
 3983TIP3    H128521   4.581   0.872   0.110 -1.6020 -0.1338 -0.2415
 3983TIP3    H228522   4.620   1.000   0.180 -1.6624 -1.0034  1.4391
 3984TIP3   OH228523   3.101   2.670   7.239 -0.0188  0.0518  0.2308
 3984TIP3    H128524   3.021   2.711   7.205 -0.7393  1.1873  3.0574
 3984TIP3    H228525   3.087   2.576   7.226 -1.1627  0.3072 -0.6043
 3985TIP3   OH228526   2.769   3.802   1.884  0.5797 -0.1879  0.0938
 3985TIP3    H128527   2.675   3.793   1.895  0.5016 -0.6928 -0.8772
 3985TIP3    H228528   2.796   3.724   1.835  1.5626 -0.2335  0.6626
 3986TIP3   OH228529   4.317   3.756   1.897  0.0209  0.0057  0.1537
 3986TIP3    H128530   4.225   3.751   1.868 -0.0396  0.0124  0.3449
 3986TIP3    H228531   4.311   3.772   1.991  0.2085  0.9780  0.0169
 3987TIP3   OH228532   0.312   6.162   7.429 -0.8171  0.0827 -0.2118
 3987TIP3    H128533   0.351   6.202   7.507 -0.4439  0.6334 -0.6718
 3987TIP3    H228534   0.219   6.183   7.434 -0.9649 -0.6677  0.5494
 3988TIP3   OH228535   3.537   4.314   0.507  0.2408 -0.3079  0.2881
 3988TIP3    H128536   3.532   4.368   0.428 -1.6209 -0.1138  0.4726
 3988TIP3    H228537   3.455   4.264   0.507 -0.1757  0.2672  2.4658
 3989TIP3   OH228538   5.779   1.646   0.413 -0.5193 -0.2356  0.9126
 3989TIP3    H128539   5.851   1.673   0.471 -0.5229  0.7189  0.4903
 3989TIP3    H228540   5.803   1.557   0.385 -1.0429 -1.1581  3.1963
 3990TIP3   OH228541   0.610   0.089   0.603 -0.5779  0.6505  0.2900
 3990TIP3    H128542   0.556   0.021   0.642  0.5207  0.0917  0.8725
 3990TIP3    H228543   0.550   0.162   0.588 -1.5281 -0.0288  0.7223
 3991TIP3   OH228544   4.148   5.330   9.295 -0.1600  0.3115  0.6111
 3991TIP3    H128545   4.149   5.275   9.373 -2.4942 -0.6787  0.0067
 3991TIP3    H228546   4.231   5.309   9.251  0.7011  0.1020  2.2387
 3992TIP3   OH228547   1.559   3.436   0.927  0.0713  0.2456  0.5467
 3992TIP3    H128548   1.564   3.357   0.874 -0.0680  0.4970  0.1552
 3992TIP3    H228549   1.647   3.447   0.962  0.3543  0.4631 -0.2047
 3993TIP3   OH228550   6.128   5.870   8.134  0.3607 -0.2292  0.0350
 3993TIP3    H128551   6.114   5.965   8.125 -1.0551 -0.3530  0.7036
 3993TIP3    H228552   6.201   5.851   8.075  0.0685  1.1228 -0.7983
 3994TIP3   OH228553   4.520   1.263   1.166 -0.2790 -0.3127  0.1925
 3994TIP3    H128554   4.542   1.309   1.247  1.7358 -2.1712  0.8007
 3994TIP3    H228555   4.449   1.204   1.190  0.5629 -1.1289  0.7617
 3995TIP3   OH228556   3.981   5.947   2.275  0.0542 -0.1760 -0.0655
 3995TIP3    H128557   3.889   5.956   2.252 -0.2911 -0.3137  1.1489
 3995TIP3    H228558   4.003   5.857   2.251 -0.6863 -0.7775  1.3218
 3996TIP3   OH228559   0.343   2.474   0.916 -0.0606  0.5117  0.4246
 3996TIP3    H128560   0.296   2.537   0.863  0.0097 -0.1779 -0.4779
 3996TIP3    H228561   0.414   2.442   0.860 -1.5201 -2.1529 -0.0844
 3997TIP3   OH228562   3.655   3.165   1.434  0.3158  0.0675  0.5185
 3997TIP3    H128563   3.570   3.136   1.466 -0.5943  0.8176 -1.1001
 3997TIP3    H228564   3.674   3.244   1.485  0.1008 -0.1558  0.9483
 3998TIP3   OH228565   2.369   0.667   8.505 -0.1347  0.1899 -0.2785
 3998TIP3    H128566   2.399   0.645   8.594 -0.1231 -0.1627 -0.3692
 3998TIP3    H228567   2.392   0.759   8.495  0.6307  0.0108 -0.2240
 3999TIP3   OH228568   4.145   4.749   0.672  0.4165 -0.2544  0.1952
 3999TIP3    H128569   4.068   4.780   0.720  1.1947 -0.3695  1.5518
 3999TIP3    H228570   4.121   4.662   0.641  0.8457 -1.3825  2.7919
 4000TIP3   OH228571   2.697   2.558   8.452 -0.3853  0.0099 -0.7053
 4000TIP3    H128572   2.686   2.533   8.544 -1.7905 -1.9357 -1.3267
 4000TIP3    H228573   2.768   2.622   8.453 -0.7111  0.4396  1.7800
 4001TIP3   OH228574   0.459   0.994   9.156  1.1303 -0.1388  0.3445
 4001TIP3    H128575   0.500   1.023   9.238 -0.4262 -2.5465  2.1210
 4001TIP3    H228576   0.404   1.067   9.129  1.1337  0.4534  1.8510
 4002TIP3   OH228577   3.598   1.814   8.380  0.2591  0.1741 -0.0015
 4002TIP3    H128578   3.647   1.864   8.315 -1.6475  0.9174 -0.9626
 4002TIP3    H228579   3.593   1.726   8.343 -1.9829  0.8974 -1.6902
 4003TIP3   OH228580   2.951   4.611   8.571  0.5711  0.0714 -0.0873
 4003TIP3    H128581   2.968   4.601   8.665  1.4337 -0.9524 -0.3286
 4003TIP3    H228582   2.942   4.521   8.539  3.1562  0.2022 -1.4599
 4004TIP3   OH228583   4.814   2.330   8.998 -0.4283  0.2758  0.3896
 4004TIP3    H128584   4.856   2.324   8.913 -0.1930 -0.9939  0.5727
 4004TIP3    H228585   4.881   2.302   9.060 -0.9625  0.0340  0.8743
 4005TIP3   OH228586   4.727   3.465   7.945  0.0282 -0.6210 -0.1818
 4005TIP3    H128587   4.639   3.428   7.946 -0.2570 -0.1246 -2.0712
 4005TIP3    H228588   4.724   3.532   7.876  1.5491  0.2741  0.5653
 4006TIP3   OH228589   2.445   0.495   8.722 -0.1312 -0.0124  0.4893
 4006TIP3    H128590   2.500   0.530   8.792 -2.3747 -0.1112  2.4107
 4006TIP3    H228591   2.402   0.419   8.761 -1.1481 -0.3226 -1.1386
 4007TIP3   OH228592   3.348   2.274   9.181 -0.4563  0.1503  0.2022
 4007TIP3    H128593   3.277   2.210   9.191  0.7546 -1.0965  1.1643
 4007TIP3    H228594   3.358   2.284   9.087 -4.0534  2.8750 -0.0893
 4008TIP3   OH228595   2.147   3.260   0.150  0.4958  0.1754 -0.5717
 4008TIP3    H128596   2.232   3.222   0.171  1.4597  2.7940  0.6822
 4008TIP3    H228597   2.091   3.184   0.131  2.1422 -1.8606  2.0279
 4009TIP3   OH228598   3.703   5.986   8.593 -0.2179 -0.1243 -0.0330
 4009TIP3    H128599   3.732   6.054   8.534  0.2890  0.6163  1.0461
 4009TIP3    H228600   3.740   5.905   8.558  0.4887  0.3755 -0.4404
 4010TIP3   OH228601   5.608   4.365   2.151 -0.5568 -0.2686 -0.2121
 4010TIP3    H128602   5.568   4.293   2.103  0.1656 -1.0666  0.3459
 4010TIP3    H228603   5.701   4.343   2.154 -0.4837  0.1214  0.9284
 4011TIP3   OH228604   5.013   3.790   6.699 -0.0644  0.2247  0.3947
 4011TIP3    H128605   5.086   3.760   6.645 -0.1328  1.4960 -0.4415
 4011TIP3    H228606   4.971   3.710   6.729  0.6588 -0.5137 -0.5023
 4012TIP3   OH228607   3.237   5.159   9.395  0.0934 -0.0069  0.2695
 4012TIP3    H128608   3.204   5.092   9.335 -0.0530 -2.1011  2.5024
 4012TIP3    H228609   3.176   5.156   9.470  1.0233  1.4902  1.1357
 4013TIP3   OH228610   2.614   5.888   7.370 -0.1131 -0.3061  0.2147
 4013TIP3    H128611   2.652   5.974   7.386  1.1341 -0.6195 -0.8047
 4013TIP3    H228612   2.523   5.895   7.398  0.2753  0.9847  1.2326
 4014TIP3   OH228613   5.980   0.656   7.198  0.0785  0.2572  0.2629
 4014TIP3    H128614   6.044   0.656   7.269 -0.5683  1.0997  0.8773
 4014TIP3    H228615   6.032   0.669   7.119  0.8640 -1.2051  0.5061
 4015TIP3   OH228616   1.990   6.432   0.372  0.3847  0.3046  0.2078
 4015TIP3    H128617   2.024   6.453   0.459 -0.9012 -0.5181  0.9458
 4015TIP3    H228618   2.068   6.418   0.319  1.2020  0.9056  1.2057
 4016TIP3   OH228619   4.979   4.931   0.024 -0.3347  0.0497 -0.2378
 4016TIP3    H128620   4.991   4.836   0.031  1.3111  0.2041 -0.5451
 4016TIP3    H228621   4.920   4.953   0.097  1.4179 -0.8805  1.5723
 4017TIP3   OH228622   0.066   2.970   0.903  0.3571  0.3100  0.0498
 4017TIP3    H128623   0.112   2.932   0.978  0.7084 -0.6205 -0.6155
 4017TIP3    H228624  -0.017   3.001   0.938  0.6247  0.1187  0.8706
 4018TIP3   OH228625   5.008   0.893   2.757  0.0245 -0.2845 -0.4707
 4018TIP3    H128626   4.968   0.962   2.810  1.2218  0.9792 -1.1586
 4018TIP3    H228627   4.965   0.812   2.787 -1.7624  0.7910 -0.0031
 4019TIP3   OH228628   0.681   4.720   2.463  0.2373 -0.0646  0.5830
 4019TIP3    H128629   0.641   4.807   2.470  1.1759  0.5336 -0.9854
 4019TIP3    H228630   0.711   4.715   2.372  0.5262 -1.8958  0.7510
 4020TIP3   OH228631   4.972   3.168   7.962  0.0015  0.1183 -0.1522
 4020TIP3    H128632   5.029   3.096   7.987  1.7186  1.4445 -0.1302
 4020TIP3    H228633   4.988   3.236   8.027  0.3839  1.4981 -1.6158
 4021TIP3   OH228634   2.497   2.616   2.252  0.0551  0.7679  0.5711
 4021TIP3    H128635   2.575   2.562   2.242 -0.8473 -0.2769 -1.3697
 4021TIP3    H228636   2.500   2.646   2.343  1.8990 -0.4804  0.9769
 4022TIP3   OH228637   5.870   5.445   1.161  0.2465 -0.2558  0.5074
 4022TIP3    H128638   5.890   5.380   1.094 -0.9950 -0.0264 -0.1187
 4022TIP3    H228639   5.952   5.456   1.209  1.0854 -0.6597 -0.7714
 4023TIP3   OH228640   5.154   5.224   7.225 -0.0451  0.6181  0.2177
 4023TIP3    H128641   5.111   5.300   7.187  0.1159  0.4872 -0.2321
 4023TIP3    H228642   5.208   5.189   7.154 -1.4509 -0.9442 -0.1426
 4024TIP3   OH228643   6.457   4.074   7.943  0.0400 -0.0118  0.1263
 4024TIP3    H128644   6.500   4.012   7.885  1.3727  0.3682  0.6728
 4024TIP3    H228645   6.371   4.035   7.959  0.3229 -1.0111 -0.6535
 4025TIP3   OH228646   4.967   5.359   8.802 -1.2319  0.2404 -0.5026
 4025TIP3    H128647   4.912   5.437   8.809  0.5328  1.5318 -0.2135
 4025TIP3    H228648   4.919   5.300   8.744 -1.4427  2.6432 -2.9845
 4026TIP3   OH228649   0.401   2.314   9.366 -0.2317 -0.3648  0.1832
 4026TIP3    H128650   0.391   2.228   9.407 -1.7945 -0.8291 -1.0962
 4026TIP3    H228651   0.314   2.353   9.371  0.2175  0.7081 -0.2030
 4027TIP3   OH228652   0.604   1.683   8.504 -0.1999  0.0599 -0.5036
 4027TIP3    H128653   0.664   1.608   8.509 -0.5535 -0.1432  1.8806
 4027TIP3    H228654   0.660   1.759   8.515 -0.1467 -0.0231 -0.1808
 4028TIP3   OH228655   3.516   3.926   2.702 -0.1829  0.3539 -0.3611
 4028TIP3    H128656   3.585   3.920   2.636  0.3529  0.2512  0.2005
 4028TIP3    H228657   3.476   3.839   2.703  0.5877  0.0087  0.2872
 4029TIP3   OH228658   1.188   1.252   8.728  0.6013 -0.0570  0.5025
 4029TIP3    H128659   1.131   1.176   8.736  2.1466 -1.1891  1.3444
 4029TIP3    H228660   1.129   1.326   8.714 -0.9097 -1.5049 -1.2335
 4030TIP3   OH228661   5.082   1.826   1.351  0.1828 -0.2035  0.3485
 4030TIP3    H128662   5.021   1.843   1.423  1.3497 -1.4716  1.6934
 4030TIP3    H228663   5.154   1.780   1.391  1.0749 -0.6051 -1.6011
 4031TIP3   OH228664   3.768   2.734   0.331  0.5615 -0.7777  0.0037
 4031TIP3    H128665   3.849   2.685   0.315  0.8135 -0.8485  1.3323
 4031TIP3    H228666   3.797   2.821   0.356  0.1516 -0.2848 -1.1851
 4032TIP3   OH228667   2.188   2.754   8.098  0.4834 -0.0670  0.3921
 4032TIP3    H128668   2.159   2.842   8.077 -0.0786  0.2223  2.2374
 4032TIP3    H228669   2.283   2.761   8.104  0.5339  0.1567 -0.4548
 4033TIP3   OH228670   0.896   2.862   7.496 -0.1278 -0.7766 -0.4149
 4033TIP3    H128671   0.857   2.921   7.431 -2.1100 -1.6721 -0.1121
 4033TIP3    H228672   0.884   2.906   7.580 -0.9322 -1.2633 -0.2697
 4034TIP3   OH228673   2.447   2.653   0.858  0.4538  0.2617  0.1229
 4034TIP3    H128674   2.443   2.598   0.937  0.3787  1.2540  0.8334
 4034TIP3    H228675   2.489   2.734   0.888  0.9331  0.4412 -0.9967
 4035TIP3   OH228676   2.961   4.444   2.299 -0.3670 -0.6247  0.3876
 4035TIP3    H128677   3.019   4.467   2.227  0.0871 -0.1916  0.8862
 4035TIP3    H228678   3.018   4.405   2.365 -0.8644 -1.5432  0.2904
 4036TIP3   OH228679   5.537   1.064   1.868 -0.1481  0.1866  0.1259
 4036TIP3    H128680   5.574   0.986   1.909  2.0042  0.3004 -1.3922
 4036TIP3    H228681   5.469   1.031   1.810  1.2450 -0.7394 -1.0722
 4037TIP3   OH228682   1.560   1.712   9.039 -0.1493 -0.2658 -0.2713
 4037TIP3    H128683   1.656   1.714   9.044 -0.1854  0.0524  3.3330
 4037TIP3    H228684   1.534   1.803   9.054 -1.0408 -0.3857 -1.0121
 4038TIP3   OH228685   2.308   2.034   0.362  0.0308  0.4146 -0.2299
 4038TIP3    H128686   2.268   2.071   0.441  1.1116  0.9709  0.0855
 4038TIP3    H228687   2.234   2.014   0.305 -1.4552 -4.9711  2.8182
 4039TIP3   OH228688   0.960   1.191   7.386  0.1632  0.4602  0.0100
 4039TIP3    H128689   0.913   1.120   7.343 -0.0463  0.0119  0.9487
 4039TIP3    H228690   1.027   1.148   7.438 -1.1359  0.7534  2.0776
 4040TIP3   OH228691   5.229   4.653   0.703 -0.0963 -0.5244 -0.0204
 4040TIP3    H128692   5.264   4.726   0.753 -1.1089  0.3061 -0.4897
 4040TIP3    H228693   5.305   4.599   0.683  0.6585  0.3633  0.3963
 4041TIP3   OH228694   5.558   4.549   3.635  0.3730 -0.4265  0.3768
 4041TIP3    H128695   5.598   4.552   3.548  0.0554  1.1546  0.2630
 4041TIP3    H228696   5.473   4.508   3.620  0.0176  0.4891 -0.2033
 4042TIP3   OH228697   4.550   1.148   1.761  0.4677 -1.3517 -0.1777
 4042TIP3    H128698   4.639   1.115   1.747  1.9491  2.2794 -0.3192
 4042TIP3    H228699   4.553   1.188   1.848 -1.1390 -1.3546 -0.0852
 4043TIP3   OH228700   3.849   4.355   0.813  0.0339 -0.5467  0.1854
 4043TIP3    H128701   3.832   4.410   0.889  1.4243  0.3553 -0.1337
 4043TIP3    H228702   3.913   4.291   0.844 -1.4156 -1.9271  0.4960
 4044TIP3   OH228703   5.945   3.119   8.475 -0.2439 -0.0016  0.2026
 4044TIP3    H128704   5.918   3.076   8.394 -1.2117  0.9913 -0.0188
 4044TIP3    H228705   5.959   3.210   8.450  1.0407  0.0044  0.8282
 4045TIP3   OH228706   0.435   1.856   6.953 -0.2572 -0.0096  0.3329
 4045TIP3    H128707   0.393   1.931   6.912  0.3275  0.0783 -0.1301
 4045TIP3    H228708   0.526   1.861   6.923 -0.7230 -2.2873 -1.7450
 4046TIP3   OH228709   0.462   3.514   0.539  0.1139 -0.0961  0.0860
 4046TIP3    H128710   0.409   3.565   0.600 -0.6413  0.7643 -1.2248
 4046TIP3    H228711   0.426   3.536   0.452  0.8464 -1.6025 -0.6452
 4047TIP3   OH228712   6.030   1.826   1.772  0.0118 -0.5716 -0.1744
 4047TIP3    H128713   6.084   1.782   1.707  1.0449  1.6837 -0.9562
 4047TIP3    H228714   5.940   1.806   1.746  0.4284 -0.5527 -1.7129
 4048TIP3   OH228715   4.448   2.511   2.244  0.2756  0.5993  0.1427
 4048TIP3    H128716   4.352   2.507   2.240  0.3099  0.2393 -0.4336
 4048TIP3    H228717   4.474   2.543   2.158  0.5626  3.4553  1.1701
 4049TIP3   OH228718   1.130   3.171   2.350  0.7626  0.2835 -0.4663
 4049TIP3    H128719   1.141   3.097   2.409  1.6566  3.0797  3.3171
 4049TIP3    H228720   1.038   3.168   2.324 -0.3831  0.0200  3.0335
 4050TIP3   OH228721   0.558   3.528   6.980 -0.1927 -0.0282 -0.6910
 4050TIP3    H128722   0.634   3.574   6.944  0.2270  0.5190  0.7998
 4050TIP3    H228723   0.594   3.476   7.052 -0.9475 -1.2945 -1.2182
 4051TIP3   OH228724   5.263   5.093   0.469 -0.2347  0.0702 -0.1958
 4051TIP3    H128725   5.226   5.181   0.465 -0.0315  0.1468 -0.4636
 4051TIP3    H228726   5.260   5.069   0.561 -0.8486  0.1176 -0.1984
 4052TIP3   OH228727   5.506   4.590   0.688 -0.0875 -0.2446 -1.1184
 4052TIP3    H128728   5.525   4.524   0.622  0.9774 -0.3618 -0.7176
 4052TIP3    H228729   5.585   4.644   0.691  0.3031 -0.8280  0.7090
 4053TIP3   OH228730   3.059   4.383   1.404  0.1191  0.2398  0.1104
 4053TIP3    H128731   3.066   4.478   1.393 -0.2181  0.4018  1.1628
 4053TIP3    H228732   3.048   4.350   1.315  0.6723  1.1425 -0.3131
 4054TIP3   OH228733   3.261   6.351   8.271  0.2455  0.1298 -0.0120
 4054TIP3    H128734   3.280   6.308   8.354  2.7095  5.0445  2.3506
 4054TIP3    H228735   3.188   6.409   8.290 -0.4537 -0.0245 -1.9498
 4055TIP3   OH228736   2.232   5.368   2.672  0.4267 -0.0111 -0.0897
 4055TIP3    H128737   2.144   5.340   2.698  0.2738  0.8409  0.3459
 4055TIP3    H228738   2.224   5.388   2.578 -0.2531  1.5446  0.2729
 4056TIP3   OH228739   3.448   5.155   8.416 -0.0665  0.0873 -0.5723
 4056TIP3    H128740   3.508   5.220   8.453  0.2829 -0.2895 -0.4678
 4056TIP3    H228741   3.455   5.167   8.322  1.5483 -1.1318 -0.6544
 4057TIP3   OH228742   2.399   2.038   8.659 -0.3105  0.0713 -0.1183
 4057TIP3    H128743   2.451   2.111   8.627 -0.3612  0.2018  0.0993
 4057TIP3    H228744   2.400   1.975   8.587  0.5115 -0.1138  0.0498
 4058TIP3   OH228745   5.040   3.837   1.146  0.2205 -0.2649 -0.2518
 4058TIP3    H128746   4.946   3.836   1.165  0.0198 -1.1695 -1.1510
 4058TIP3    H228747   5.045   3.842   1.050  1.1512  2.9343 -0.1332
 4059TIP3   OH228748   0.588   5.011   1.017 -0.1753 -0.2397  0.6122
 4059TIP3    H128749   0.606   5.035   1.108  1.0753 -3.3701  1.2990
 4059TIP3    H228750   0.502   4.969   1.019 -0.1465 -0.3131  0.3476
 4060TIP3   OH228751   5.295   0.154   8.787 -0.2481  0.3286 -0.0742
 4060TIP3    H128752   5.386   0.147   8.817  0.0105 -0.9530 -1.0982
 4060TIP3    H228753   5.299   0.144   8.692 -1.4076  0.8778 -0.2068
 4061TIP3   OH228754   0.946   3.871   0.972 -0.1785  0.1337 -0.1586
 4061TIP3    H128755   0.895   3.952   0.959  0.7734  1.0521  1.5145
 4061TIP3    H228756   0.931   3.821   0.892 -1.0878  1.8130 -1.1033
 4062TIP3   OH228757   6.121   3.243   2.276  0.5014  0.0254 -0.3041
 4062TIP3    H128758   6.162   3.230   2.362  0.6918 -2.5791 -0.7061
 4062TIP3    H228759   6.033   3.206   2.285  0.2148  0.5173 -0.9999
 4063TIP3   OH228760   2.958   1.786   7.651 -0.4948 -0.0993  0.0974
 4063TIP3    H128761   2.905   1.713   7.619 -1.3953  0.5920 -0.0369
 4063TIP3    H228762   2.894   1.852   7.678  0.3111  1.0731 -0.7804
 4064TIP3   OH228763   4.746   2.797   8.685  0.0493 -0.5351  0.0485
 4064TIP3    H128764   4.714   2.835   8.603  0.3947  0.1164  0.2023
 4064TIP3    H228765   4.681   2.732   8.709 -1.0566  0.6063  0.2360
 4065TIP3   OH228766   2.341   2.554   7.487 -0.8868  0.0164  0.3868
 4065TIP3    H128767   2.302   2.472   7.457  1.1943 -1.2778  0.9408
 4065TIP3    H228768   2.372   2.535   7.576  1.6182  0.6297 -0.2692
 4066TIP3   OH228769   2.006   3.212   2.376 -0.5718  0.3835  0.0204
 4066TIP3    H128770   2.051   3.235   2.457  2.1003 -0.3278 -1.1527
 4066TIP3    H228771   2.001   3.295   2.327  0.1667  0.3546 -0.1239
 4067TIP3   OH228772   2.443   4.932   1.063  0.8167 -0.1940 -0.1295
 4067TIP3    H128773   2.442   4.838   1.045  1.1340  0.0136 -1.3268
 4067TIP3    H228774   2.396   4.971   0.990 -2.2609  0.3842  1.9790
 4068TIP3   OH228775   0.980   1.955   6.188  0.0378  0.7140  0.1534
 4068TIP3    H128776   0.913   1.965   6.256  1.7383  1.7011  1.7486
 4068TIP3    H228777   0.948   1.882   6.135 -1.1696 -0.3959  2.2449
 4069TIP3   OH228778   0.394   6.161   1.031  0.0664 -0.2342 -0.3556
 4069TIP3    H128779   0.419   6.162   1.123  1.0801  0.4109 -0.6248
 4069TIP3    H228780   0.475   6.139   0.985 -0.4999 -0.8630 -1.0826
 4070TIP3   OH228781   2.257   0.242   8.067 -0.0099 -0.0172  0.2881
 4070TIP3    H128782   2.298   0.210   8.148 -0.7718  0.9519  1.0758
 4070TIP3    H228783   2.267   0.169   8.005  0.3074 -0.9005  1.3456
 4071TIP3   OH228784   0.862   5.072   1.022  0.3076  0.1082  0.0802
 4071TIP3    H128785   0.783   5.045   0.976  0.6157 -0.4511 -0.1395
 4071TIP3    H228786   0.831   5.111   1.104 -0.1387 -1.4732  0.6892
 4072TIP3   OH228787   4.847   3.893   0.962  0.0251 -0.0442 -0.3197
 4072TIP3    H128788   4.755   3.905   0.939  0.5549  0.3740 -2.3838
 4072TIP3    H228789   4.867   3.967   1.020 -1.4311 -1.3226  2.0063
 4073TIP3   OH228790   2.708   1.905   2.270  0.9609  0.5162  0.8043
 4073TIP3    H128791   2.703   1.980   2.211 -1.1025 -0.3360 -0.1802
 4073TIP3    H228792   2.705   1.943   2.358 -0.2662  1.6097  0.3184
 4074TIP3   OH228793   5.580   0.959   0.351 -0.0811 -0.5304 -0.1892
 4074TIP3    H128794   5.492   0.985   0.378  0.0107 -0.2660 -0.1349
 4074TIP3    H228795   5.634   1.036   0.370  0.1026 -0.5787 -0.5173
 4075TIP3   OH228796   1.136   6.325   0.752 -0.2494  0.2933 -0.0273
 4075TIP3    H128797   1.211   6.321   0.693  0.1782 -0.4363  0.5568
 4075TIP3    H228798   1.129   6.417   0.777  0.3670  0.3818 -0.1854
 4076TIP3   OH228799   3.358   0.196   7.243 -0.1727  0.6024  0.0368
 4076TIP3    H128800   3.298   0.187   7.169 -0.8179  1.1202  0.4844
 4076TIP3    H228801   3.324   0.271   7.293  0.0544  0.0684  1.0254
 4077TIP3   OH228802   2.373   5.654   7.561 -0.3738  0.2517 -0.0092
 4077TIP3    H128803   2.317   5.689   7.630 -0.0974  0.7542 -0.0349
 4077TIP3    H228804   2.461   5.657   7.597 -0.2473  0.3604 -0.3212
 4078TIP3   OH228805   3.229   3.840   9.124  0.1726 -0.0751  0.3542
 4078TIP3    H128806   3.187   3.922   9.151  0.0236 -0.2415  0.6345
 4078TIP3    H228807   3.320   3.864   9.106 -0.2939  0.5353 -1.4405
 4079TIP3   OH228808   1.294   4.637   2.557  0.3157 -0.1289 -0.6112
 4079TIP3    H128809   1.340   4.690   2.492  1.4627 -3.2734 -2.5896
 4079TIP3    H228810   1.244   4.574   2.505 -0.8483 -1.0939  1.5730
 4080TIP3   OH228811   3.163   0.346   0.207  0.2419 -1.0004  0.8114
 4080TIP3    H128812   3.096   0.291   0.166 -0.4491 -0.1683  0.7855
 4080TIP3    H228813   3.146   0.434   0.173  1.5494 -0.8137  0.5765
 4081TIP3   OH228814   0.781   6.369   0.488  0.0805  0.3180  0.2915
 4081TIP3    H128815   0.717   6.435   0.515 -0.3049  0.0426  0.0730
 4081TIP3    H228816   0.753   6.343   0.401  0.7632  0.5204  0.0039
 4082TIP3   OH228817   1.859   5.030   6.930 -0.4668  0.0828 -0.4067
 4082TIP3    H128818   1.811   5.110   6.908 -1.7359 -0.5524 -0.0557
 4082TIP3    H228819   1.853   5.024   7.025 -1.7489 -1.2070 -0.5280
 4083TIP3   OH228820   5.605   5.187   8.243 -0.3574 -0.5594  0.5888
 4083TIP3    H128821   5.644   5.108   8.206 -1.0425 -0.2069 -0.9588
 4083TIP3    H228822   5.526   5.157   8.287  0.9648 -1.1147  2.7186
 4084TIP3   OH228823   4.238   2.181   6.337 -0.2449  0.2160  0.4458
 4084TIP3    H128824   4.280   2.213   6.417 -1.1356  1.5255  0.4238
 4084TIP3    H228825   4.310   2.149   6.283  0.4381 -0.0331  1.4796
 4085TIP3   OH228826   0.012   6.361   1.057  0.3968  0.6807  0.6978
 4085TIP3    H128827   0.060   6.278   1.065 -0.4677 -0.2276 -2.4092
 4085TIP3    H228828  -0.017   6.380   1.147  0.3123 -2.5931  1.4935
 4086TIP3   OH228829   0.422   5.218   6.729 -0.1576 -0.0704 -0.2974
 4086TIP3    H128830   0.467   5.215   6.645 -0.9082 -2.5198 -0.7022
 4086TIP3    H228831   0.483   5.178   6.791 -0.7044 -0.9868 -0.3222
 4087TIP3   OH228832   2.430   0.779   9.137 -0.0052  0.1775 -1.0232
 4087TIP3    H128833   2.391   0.737   9.060 -0.3226 -0.9447 -0.2630
 4087TIP3    H228834   2.379   0.859   9.148 -1.5541 -0.8285 -0.5848
 4088TIP3   OH228835   6.236   0.231   8.878 -0.0707  0.1051 -0.1152
 4088TIP3    H128836   6.200   0.189   8.800 -1.9270  3.2804 -1.1402
 4088TIP3    H228837   6.292   0.301   8.845  0.1539  0.6980  1.4247
 4089TIP3   OH228838   4.037   0.940   7.108  0.0601 -0.0785  0.3115
 4089TIP3    H128839   3.983   1.011   7.074 -1.1660 -0.1645  1.9863
 4089TIP3    H228840   4.044   0.878   7.035 -3.2322 -0.7000  0.3834
 4090TIP3   OH228841   1.216   5.848   0.211 -0.0869 -0.0184  0.3286
 4090TIP3    H128842   1.291   5.822   0.264  1.2004  2.3629 -0.2177
 4090TIP3    H228843   1.239   5.823   0.122 -0.3927 -0.1868  0.2947
 4091TIP3   OH228844   4.260   2.392   2.456  0.2738 -0.0831 -0.3635
 4091TIP3    H128845   4.287   2.447   2.529  1.3458 -0.6004 -0.3469
 4091TIP3    H228846   4.174   2.360   2.480  0.6576 -0.3394  0.7287
 4092TIP3   OH228847   0.700   3.702   8.052  0.0747  0.6831  0.4491
 4092TIP3    H128848   0.729   3.788   8.021 -1.0534  1.4264  1.3691
 4092TIP3    H228849   0.777   3.646   8.043  0.3634  1.3388 -1.8014
 4093TIP3   OH228850   3.962   5.179   0.857  0.0521  0.1015 -0.0434
 4093TIP3    H128851   3.891   5.115   0.860  0.8708 -0.8190 -0.0886
 4093TIP3    H228852   3.936   5.247   0.920 -0.6725 -0.4163  0.2246
 4094TIP3   OH228853   0.336   1.781   2.418 -0.1411 -0.6496 -0.1175
 4094TIP3    H128854   0.403   1.713   2.405  1.6687  1.1218 -0.5706
 4094TIP3    H228855   0.318   1.814   2.330  0.0793  0.4177  0.2234
 4095TIP3   OH228856   4.814   5.156   0.960  0.2490  0.0800 -0.0643
 4095TIP3    H128857   4.770   5.230   1.001 -1.0772 -0.6622 -0.0926
 4095TIP3    H228858   4.877   5.126   1.026 -0.2768  0.2949  0.5495
 4096TIP3   OH228859   1.053   1.986   8.578  0.2926  0.0180 -0.5962
 4096TIP3    H128860   1.132   2.020   8.620  0.9183  0.8700 -2.3607
 4096TIP3    H228861   1.062   2.011   8.486 -2.6668  1.3762 -0.6458
 4097TIP3   OH228862   3.940   3.985   1.801  0.0039 -0.3361 -0.0141
 4097TIP3    H128863   4.029   3.975   1.837  0.2612 -1.2039 -0.8595
 4097TIP3    H228864   3.894   4.038   1.866  0.7843 -0.9240  1.0438
 4098TIP3   OH228865   1.739   6.126   8.564 -0.2790 -0.1843  0.2273
 4098TIP3    H128866   1.793   6.082   8.498  1.1649  1.1286  0.4842
 4098TIP3    H228867   1.670   6.169   8.514 -0.2827 -0.7330 -0.2480
 4099TIP3   OH228868   3.069   4.422   8.749  0.0504 -0.2464  0.5530
 4099TIP3    H128869   3.060   4.332   8.781  0.3574 -0.6995 -0.5594
 4099TIP3    H228870   3.129   4.414   8.674  2.0491  1.2424  1.8948
 4100TIP3   OH228871   3.949   0.888   1.440  0.2012 -0.1576  0.5616
 4100TIP3    H128872   3.987   0.809   1.401  1.0058  0.0948  0.8168
 4100TIP3    H228873   3.880   0.914   1.378  1.9971  0.7250 -1.1882
 4101TIP3   OH228874   6.188   5.898   1.643 -0.1141 -0.2072 -0.1657
 4101TIP3    H128875   6.155   5.844   1.714  1.1638 -0.4065  0.3097
 4101TIP3    H228876   6.156   5.986   1.663  2.8808  0.4698  2.5977
 4102TIP3   OH228877   1.054   1.979   9.321 -0.3944  0.6832  0.0677
 4102TIP3    H128878   1.061   2.059   9.268  1.5989  0.3141 -0.3285
 4102TIP3    H228879   1.044   1.909   9.256  0.5990  0.3696  0.2376
 4103TIP3   OH228880   2.170   4.191   7.611 -0.5845 -0.3827  0.6585
 4103TIP3    H128881   2.132   4.150   7.533  0.4284 -0.3177  0.1171
 4103TIP3    H228882   2.256   4.221   7.583 -1.2214  2.0253  1.0780
 4104TIP3   OH228883   5.225   1.923   6.982 -0.6466 -0.1446  0.1511
 4104TIP3    H128884   5.179   2.004   6.962 -0.0659 -0.1982 -1.6124
 4104TIP3    H228885   5.255   1.933   7.072  1.3868  2.6218 -0.6869
 4105TIP3   OH228886   1.569   4.623   7.341  0.1024 -0.3110  0.0660
 4105TIP3    H128887   1.488   4.620   7.391  0.6655 -0.1732  1.0080
 4105TIP3    H228888   1.611   4.704   7.368  0.2938 -0.0935 -0.8495
 4106TIP3   OH228889   6.175   5.737   1.211  0.0616  0.0743 -0.3926
 4106TIP3    H128890   6.229   5.690   1.147  2.6313  0.8751  1.0198
 4106TIP3    H228891   6.198   5.697   1.295  0.7153  2.3527  0.5991
 4107TIP3   OH228892   5.533   6.358   7.855 -0.0470 -0.1380  0.2685
 4107TIP3    H128893   5.585   6.430   7.888 -2.0334  0.4176  2.4417
 4107TIP3    H228894   5.568   6.280   7.898  0.2870 -0.0655  0.1262
 4108TIP3   OH228895   1.338   1.488   0.487 -0.3657  0.4598  0.0717
 4108TIP3    H128896   1.305   1.511   0.400  0.1457  0.6417 -0.0817
 4108TIP3    H228897   1.433   1.494   0.478 -0.2479 -0.7152  0.3059
 4109TIP3   OH228898   3.277   0.900   0.407 -0.0522 -0.2120 -0.3206
 4109TIP3    H128899   3.202   0.939   0.362 -1.8032 -2.6471  0.2234
 4109TIP3    H228900   3.243   0.876   0.493  2.1936  1.0522  1.0040
 4110TIP3   OH228901   2.904   6.265   3.026 -0.3031  0.1807 -0.3496
 4110TIP3    H128902   2.902   6.344   2.973  0.5797  0.4051 -0.0512
 4110TIP3    H228903   2.893   6.194   2.963  0.8688  0.4378 -0.8598
 4111TIP3   OH228904   3.350   2.151   1.137 -0.4687  0.2328  0.0019
 4111TIP3    H128905   3.265   2.129   1.176 -1.2788  2.1185 -0.5928
 4111TIP3    H228906   3.380   2.227   1.186  0.4409  0.1411 -0.4008
 4112TIP3   OH228907   1.321   4.265   9.255  0.1027  0.2129 -0.7923
 4112TIP3    H128908   1.323   4.361   9.261  1.4924  0.1316  0.5721
 4112TIP3    H228909   1.247   4.239   9.310 -0.1283  0.4751 -0.9743
 4113TIP3   OH228910   0.422   5.802   6.722  0.5379  0.7231 -0.2734
 4113TIP3    H128911   0.374   5.721   6.703  2.7346 -0.3361 -1.7338
 4113TIP3    H228912   0.368   5.871   6.683 -0.6310 -0.1968 -0.3513
 4114TIP3   OH228913   3.496   1.187   7.790  0.1278 -0.4048 -0.1186
 4114TIP3    H128914   3.437   1.262   7.797  1.9907  1.1209  0.3149
 4114TIP3    H228915   3.517   1.182   7.697 -1.7105 -1.8609 -0.5074
 4115TIP3   OH228916   3.412   6.374   2.401 -0.7426  0.4768 -0.3110
 4115TIP3    H128917   3.391   6.297   2.348 -1.4243  0.3256  0.1599
 4115TIP3    H228918   3.401   6.344   2.492 -0.7007  1.0416 -0.1138
 4116TIP3   OH228919   5.322   3.535   2.065  0.2095 -0.0253  0.3800
 4116TIP3    H128920   5.237   3.515   2.025 -0.7161  1.3175  1.5753
 4116TIP3    H228921   5.374   3.569   1.992 -0.3296 -0.7088 -0.3430
 4117TIP3   OH228922   1.051   0.340   2.542  0.5356 -0.6407  0.5612
 4117TIP3    H128923   0.971   0.389   2.525  1.4465  1.1400  1.1024
 4117TIP3    H228924   1.031   0.286   2.619  0.4651  1.4406  2.0677
 4118TIP3   OH228925   0.569   5.616   2.328  0.2740  0.0122 -0.4816
 4118TIP3    H128926   0.661   5.622   2.357  0.6853  0.0023 -1.7172
 4118TIP3    H228927   0.573   5.633   2.234 -1.1917  1.6590 -0.2970
 4119TIP3   OH228928   4.991   6.089   1.728  0.3646  0.3563 -0.1009
 4119TIP3    H128929   5.058   6.099   1.660  1.5197  2.8805  1.2724
 4119TIP3    H228930   5.027   6.023   1.787 -0.0441 -0.8778 -1.1724
 4120TIP3   OH228931   2.621   2.998   8.970  0.7263 -0.2634 -0.4142
 4120TIP3    H128932   2.685   2.997   8.899  1.2561 -0.1046  0.0548
 4120TIP3    H228933   2.596   3.090   8.978 -0.1460 -0.4335 -1.1113
 4121TIP3   OH228934   4.464   0.645   3.101 -0.6959  0.6057  0.4908
 4121TIP3    H128935   4.389   0.609   3.150 -0.2135  1.2672  1.7646
 4121TIP3    H228936   4.540   0.620   3.153 -0.0621  0.3605 -0.5424
 4122TIP3   OH228937   1.156   3.351  -0.011 -0.3970 -0.0025  0.8271
 4122TIP3    H128938   1.166   3.369   0.082 -0.0060 -2.1067  1.2352
 4122TIP3    H228939   1.207   3.420  -0.054 -1.2664  1.4897  2.1007
 4123TIP3   OH228940   4.727   0.253   8.744 -0.2624  0.1567 -0.3088
 4123TIP3    H128941   4.740   0.181   8.805  0.2523 -0.2501 -0.8983
 4123TIP3    H228942   4.784   0.323   8.776  1.5253 -0.7335 -1.4233
 4124TIP3   OH228943   2.104   5.807   0.544 -0.1078 -0.4610  0.2238
 4124TIP3    H128944   2.098   5.899   0.569 -0.6762 -0.8440  1.5733
 4124TIP3    H228945   2.118   5.809   0.449  0.8606  1.0252  0.3668
 4125TIP3   OH228946   1.514   2.501   7.222 -0.1793  0.3198  0.5731
 4125TIP3    H128947   1.602   2.518   7.254  0.4749 -1.1646 -0.3542
 4125TIP3    H228948   1.500   2.566   7.153  0.2971  0.3861  0.5352
 4126TIP3   OH228949   2.110   6.235   1.325  0.3733  0.4071 -0.3376
 4126TIP3    H128950   2.046   6.305   1.342 -0.4179 -0.4439  0.3393
 4126TIP3    H228951   2.187   6.261   1.374  0.1304  0.8733 -0.1933
 4127TIP3   OH228952   2.728   2.092   1.706 -0.3137 -0.2176  0.3889
 4127TIP3    H128953   2.737   2.043   1.788  0.4945 -2.0016 -0.6802
 4127TIP3    H228954   2.658   2.047   1.659 -0.2251  0.2690 -0.2248
 4128TIP3   OH228955   4.101   6.181   9.145  0.4426 -0.6631 -0.1678
 4128TIP3    H128956   4.096   6.162   9.238  1.5592  0.0333  0.0511
 4128TIP3    H228957   4.077   6.099   9.102 -0.3658 -0.9035  0.7160
 4129TIP3   OH228958   0.046   3.268   8.583  0.6275  0.1769 -0.1608
 4129TIP3    H128959   0.047   3.213   8.662  1.3285 -0.2373 -0.4528
 4129TIP3    H228960   0.138   3.278   8.559  0.4356  0.5038 -0.7880
 4130TIP3   OH228961   2.002   3.260   9.251 -0.2370 -0.7791  0.5528
 4130TIP3    H128962   2.023   3.174   9.215  3.9456  0.4977 -0.5980
 4130TIP3    H228963   2.081   3.286   9.299 -1.4147  2.3343  1.0525
 4131TIP3   OH228964   1.613   0.007   8.179 -0.3034  0.5562  0.0360
 4131TIP3    H128965   1.526   0.037   8.155  0.2547  1.3967 -1.0528
 4131TIP3    H228966   1.629   0.045   8.266 -1.1545  0.0692  0.4176
 4132TIP3   OH228967   2.294   4.491   7.808 -0.4192  0.2797  0.3531
 4132TIP3    H128968   2.266   4.550   7.737 -0.2777 -0.0585  0.0130
 4132TIP3    H228969   2.321   4.549   7.878  0.1224  0.6262 -0.1384
 4133TIP3   OH228970   2.655   5.011   0.296 -0.3530  0.8144 -0.1240
 4133TIP3    H128971   2.695   5.040   0.214 -0.3559 -0.7055 -0.6946
 4133TIP3    H228972   2.727   4.970   0.345 -0.4022  1.4958  0.5500
 4134TIP3   OH228973   3.180   1.463   0.261 -0.1608 -0.3229  0.1748
 4134TIP3    H128974   3.149   1.387   0.211 -0.4748  0.4013 -0.7667
 4134TIP3    H228975   3.275   1.461   0.252 -0.2795  0.8217 -2.0846
 4135TIP3   OH228976   1.997   2.860   7.360 -0.0683 -0.2371 -0.0522
 4135TIP3    H128977   1.929   2.841   7.295 -1.0440  1.1984  0.4974
 4135TIP3    H228978   1.971   2.811   7.438  0.4617 -1.0153 -0.3483
 4136TIP3   OH228979   3.775   5.474   7.848  0.5520  0.1792  0.0283
 4136TIP3    H128980   3.732   5.503   7.929 -0.6040  1.0106 -0.8558
 4136TIP3    H228981   3.793   5.381   7.863 -0.6522  0.0469  0.8311
 4137TIP3   OH228982   0.235   1.282   7.986  0.0845  0.4569  0.0805
 4137TIP3    H128983   0.234   1.345   8.058 -0.2781  1.1393 -0.5093
 4137TIP3    H228984   0.279   1.328   7.914  0.7810 -0.3459 -0.0301
 4138TIP3   OH228985   1.016   2.059   1.086  0.1800  0.1408  0.2419
 4138TIP3    H128986   1.004   2.039   0.993  0.9652 -1.1923  0.4032
 4138TIP3    H228987   0.938   2.109   1.110  0.1276  0.8071 -1.2093
 4139TIP3   OH228988   3.840   6.396   1.888  0.0353 -0.4031 -0.1449
 4139TIP3    H128989   3.813   6.468   1.945  0.2533  1.4733 -2.2440
 4139TIP3    H228990   3.827   6.317   1.940  2.7108  1.2485  3.4617
 4140TIP3   OH228991   4.413   0.745   0.423 -0.1252 -0.7698 -0.8416
 4140TIP3    H128992   4.352   0.795   0.369 -1.0546  1.1374  1.7226
 4140TIP3    H228993   4.358   0.701   0.487  1.0316  0.0671  0.8318
 4141TIP3   OH228994   1.925   4.749   0.849 -0.3645  0.2503  0.4142
 4141TIP3    H128995   1.995   4.715   0.793 -0.7379  1.1737 -0.6574
 4141TIP3    H228996   1.859   4.780   0.788 -1.4457 -0.0437  1.4073
 4142TIP3   OH228997   3.401   4.884   8.445 -0.0699  0.2577  0.0398
 4142TIP3    H128998   3.385   4.946   8.517 -1.2141 -0.2409  0.2335
 4142TIP3    H228999   3.347   4.808   8.467 -0.2055 -0.0183 -1.1969
 4143TIP3   OH229000   3.116   1.197   7.765 -0.1383 -0.6272  0.5327
 4143TIP3    H129001   3.117   1.229   7.674  1.8331  0.3793  0.8730
 4143TIP3    H229002   3.149   1.107   7.759  0.4160 -0.4123  0.2985
 4144TIP3   OH229003   6.021   2.334   0.215  0.1568  0.0193  0.5696
 4144TIP3    H129004   6.029   2.366   0.305 -0.8402  1.0632  0.3112
 4144TIP3    H229005   5.980   2.248   0.223  1.0830 -0.3811  1.1628
 4145TIP3   OH229006   3.068   4.670   1.366  0.3244  0.2807  0.1756
 4145TIP3    H129007   3.138   4.736   1.360  0.9694 -0.4280 -0.4752
 4145TIP3    H229008   3.000   4.702   1.306  0.7951  0.1808 -0.4271
 4146TIP3   OH229009   6.288   1.444   8.136  0.4530 -0.3691  0.1013
 4146TIP3    H129010   6.304   1.370   8.078 -0.4128 -0.1187 -0.4854
 4146TIP3    H229011   6.304   1.410   8.224 -1.1467 -1.6466 -0.0476
 4147TIP3   OH229012   6.451   5.694   5.967  0.3083 -0.1292  0.3546
 4147TIP3    H129013   6.419   5.783   5.984  1.8253  0.4087  0.5503
 4147TIP3    H229014   6.437   5.647   6.049 -1.9945 -0.5901 -0.2293
 4148TIP3   OH229015   2.522   5.365   2.505  0.6013  0.2971 -0.3802
 4148TIP3    H129016   2.466   5.436   2.475  0.7609  0.5121 -0.1688
 4148TIP3    H229017   2.514   5.367   2.601 -0.9482 -1.2150 -0.4321
 4149TIP3   OH229018   0.132   2.552   8.936 -0.0935  0.6442  0.1469
 4149TIP3    H129019   0.135   2.638   8.894 -2.2659  0.8211  0.2393
 4149TIP3    H229020   0.087   2.496   8.874 -0.9265  0.2212  1.1071
 4150TIP3   OH229021   3.233   2.397   8.133  0.3712 -0.0646 -0.0490
 4150TIP3    H129022   3.198   2.474   8.178 -1.0434 -0.2797 -0.7286
 4150TIP3    H229023   3.281   2.432   8.059 -0.9139  0.1756 -0.7986
 4151TIP3   OH229024   4.807   1.532   7.214 -0.0120  0.0561  0.5654
 4151TIP3    H129025   4.892   1.532   7.171 -0.0314 -0.6687  0.5134
 4151TIP3    H229026   4.825   1.560   7.304  0.2617 -0.0066  0.5295
 4152TIP3   OH229027   1.138   4.960   9.367 -0.3334 -0.0557  0.5964
 4152TIP3    H129028   1.190   5.037   9.390 -0.3518 -0.2537  1.3462
 4152TIP3    H229029   1.049   4.994   9.354 -0.2514  0.1139  0.4825
 4153TIP3   OH229030   4.393   4.431   2.864 -0.5697  0.5320  0.6898
 4153TIP3    H129031   4.369   4.523   2.867 -0.5615  0.5483  0.3157
 4153TIP3    H229032   4.469   4.423   2.920  0.0154  0.9346 -0.0369
 4154TIP3   OH229033   3.518   3.389   2.335 -0.1674  0.3722  0.3454
 4154TIP3    H129034   3.429   3.378   2.370 -1.0030 -0.7003 -1.9078
 4154TIP3    H229035   3.540   3.480   2.354 -2.1767  0.9556  0.1002
 4155TIP3   OH229036   5.704   0.169   0.667 -0.2889  0.5176 -0.2282
 4155TIP3    H129037   5.633   0.190   0.728 -0.7574 -0.4933 -0.3979
 4155TIP3    H229038   5.771   0.128   0.721 -0.6889 -0.3451 -0.3687
 4156TIP3   OH229039   4.921   5.495   1.062  0.0004  0.0509  0.2090
 4156TIP3    H129040   4.941   5.483   0.969 -0.9166  0.8584 -0.1111
 4156TIP3    H229041   5.006   5.499   1.105  0.4745 -3.4647 -0.1181
 4157TIP3   OH229042   3.179   2.352   8.728  0.1005  0.6056  0.0190
 4157TIP3    H129043   3.172   2.394   8.642  0.1031  0.6791  0.0546
 4157TIP3    H229044   3.089   2.337   8.755 -0.0183 -3.3670 -1.9255
 4158TIP3   OH229045   0.032   0.133   7.600  0.4993 -0.1668  0.2697
 4158TIP3    H129046  -0.021   0.185   7.538  0.1419 -1.1805 -0.2986
 4158TIP3    H229047   0.104   0.099   7.547 -1.3919 -3.5200 -0.4423
 4159TIP3   OH229048   6.443   2.267   9.029 -0.0872 -0.1171  1.0184
 4159TIP3    H129049   6.399   2.352   9.031  1.0901  0.5420  0.4148
 4159TIP3    H229050   6.385   2.211   8.976 -0.8328  0.3257  1.3568
 4160TIP3   OH229051   4.424   4.015   6.754  0.4375  0.0016  0.3904
 4160TIP3    H129052   4.468   3.961   6.688  2.3728 -0.0051  1.6345
 4160TIP3    H229053   4.340   3.971   6.768  1.3960 -1.9244  0.3760
 4161TIP3   OH229054   3.953   5.173   1.512 -0.2022  0.1982 -0.1095
 4161TIP3    H129055   3.876   5.225   1.492  0.2603  0.9323  0.0064
 4161TIP3    H229056   4.002   5.169   1.429 -0.1744  0.0602 -0.0869
 4162TIP3   OH229057   6.373   5.268   8.530 -0.0147  0.1863 -0.1727
 4162TIP3    H129058   6.303   5.313   8.577 -0.4639  0.0768 -0.7287
 4162TIP3    H229059   6.386   5.186   8.579 -0.9572 -0.2462 -0.6209
 4163TIP3   OH229060   1.582   4.585   0.714 -0.0485 -0.2374  0.4997
 4163TIP3    H129061   1.656   4.573   0.655  0.3702 -1.4046  1.2225
 4163TIP3    H229062   1.511   4.615   0.658 -0.0282 -2.5239 -0.8440
 4164TIP3   OH229063   4.998   1.055   2.008 -0.2904  0.1083  0.2802
 4164TIP3    H129064   4.996   1.129   2.069  0.5099 -0.0068  0.4580
 4164TIP3    H229065   4.972   0.980   2.061 -0.8079  0.2059  0.1722
 4165TIP3   OH229066   2.484   6.299   8.891 -0.4228 -0.4809  0.1297
 4165TIP3    H129067   2.522   6.340   8.968 -4.2155 -0.0259  1.9823
 4165TIP3    H229068   2.524   6.345   8.817  1.5056  0.8144  1.8848
 4166TIP3   OH229069   3.582   5.983   0.837  0.4916  0.1069  0.3117
 4166TIP3    H129070   3.623   6.029   0.764 -2.3682  2.0002 -0.2790
 4166TIP3    H229071   3.540   5.907   0.797  1.4202 -0.5315  0.5261
 4167TIP3   OH229072   4.192   3.689   1.017  0.4036 -0.2239  0.5231
 4167TIP3    H129073   4.252   3.718   0.948  0.3218  0.0195  0.5562
 4167TIP3    H229074   4.218   3.740   1.094  0.1086 -0.0715  0.5196
 4168TIP3   OH229075   2.185   2.056   7.958 -0.1479  0.5422 -0.0137
 4168TIP3    H129076   2.095   2.039   7.984  0.6715  0.1413  2.8989
 4168TIP3    H229077   2.205   2.142   7.997  0.7958  0.5266 -0.4430
 4169TIP3   OH229078   3.651   0.504   0.490 -0.0573 -0.3139 -0.3691
 4169TIP3    H129079   3.567   0.506   0.445 -0.1872  2.3331 -0.2157
 4169TIP3    H229080   3.715   0.491   0.420 -0.4377  0.8407 -0.9680
 4170TIP3   OH229081   2.616   5.841   8.566  0.2290 -0.2825  0.4887
 4170TIP3    H129082   2.700   5.884   8.551 -0.2631  0.8249  0.8252
 4170TIP3    H229083   2.637   5.767   8.623  0.8089  0.6505  1.5161
 4171TIP3   OH229084   4.670   0.360   0.192 -0.0001 -0.9891 -0.3260
 4171TIP3    H129085   4.665   0.284   0.250 -1.0662 -0.5290  0.2221
 4171TIP3    H229086   4.610   0.424   0.231  2.0179  0.7734  0.1467
 4172TIP3   OH229087   3.873   1.348   2.735 -0.4501 -0.3202 -0.4215
 4172TIP3    H129088   3.934   1.315   2.801 -0.7333 -0.1833 -0.0877
 4172TIP3    H229089   3.923   1.347   2.653  0.1733  0.3190 -0.0542
 4173TIP3   OH229090   5.003   2.169   0.558  0.0682  0.0114  0.6084
 4173TIP3    H129091   5.058   2.247   0.569  1.0428 -0.6037  0.1736
 4173TIP3    H229092   4.934   2.180   0.623  1.6285 -0.0135  2.3357
 4174TIP3   OH229093   0.373   1.742   0.549  0.2067 -0.1441  0.2806
 4174TIP3    H129094   0.374   1.829   0.510  2.6677 -0.1870  0.0604
 4174TIP3    H229095   0.358   1.758   0.643 -0.5630  0.4073  0.0658
 4175TIP3   OH229096   5.139   2.927   7.878 -0.5754  0.2662  0.4287
 4175TIP3    H129097   5.095   2.899   7.798 -0.2649 -1.8012  0.9386
 4175TIP3    H229098   5.232   2.914   7.860 -0.4499  0.5925  0.8301
 4176TIP3   OH229099   0.326   0.476   2.590 -0.5133 -0.0800 -0.2400
 4176TIP3    H129100   0.294   0.479   2.680 -1.4338 -1.0842 -0.5127
 4176TIP3    H229101   0.421   0.473   2.599 -0.6123 -1.8156  0.8030
 4177TIP3   OH229102   2.156   0.435   1.047  0.1522  0.0296  0.2075
 4177TIP3    H129103   2.068   0.440   1.084  0.8061  4.4935  1.8398
 4177TIP3    H229104   2.143   0.441   0.953 -1.3369  0.4560  0.4063
 4178TIP3   OH229105   5.849   3.757   7.730 -0.3545  0.0331 -0.1869
 4178TIP3    H129106   5.760   3.771   7.762 -0.2075 -2.0735  1.2936
 4178TIP3    H229107   5.879   3.845   7.704 -2.2335  1.0517  0.8971
 4179TIP3   OH229108   1.310   0.636   0.246 -0.4949 -0.3427 -0.2596
 4179TIP3    H129109   1.315   0.688   0.326 -1.5737  0.4214 -0.6674
 4179TIP3    H229110   1.285   0.549   0.276  0.3660 -0.4010  0.3390
 4180TIP3   OH229111   5.154   0.577   1.138 -0.4564  0.2248 -0.0973
 4180TIP3    H129112   5.167   0.483   1.131 -0.3899  0.3467 -2.4970
 4180TIP3    H229113   5.187   0.600   1.225 -1.2569 -2.0585  0.8706
 4181TIP3   OH229114   6.348   5.375   1.204 -0.1251  0.3249  0.3998
 4181TIP3    H129115   6.335   5.296   1.152 -0.8015  0.3582  0.5148
 4181TIP3    H229116   6.339   5.447   1.141  0.4500  0.3194  0.3031
 4182TIP3   OH229117   1.413   0.291   0.473  0.1872 -0.1494  0.2000
 4182TIP3    H129118   1.465   0.356   0.425 -0.1707 -0.2638 -0.3511
 4182TIP3    H229119   1.458   0.283   0.557  1.6606 -0.9889 -0.6231
 4183TIP3   OH229120   5.559   4.853   1.063 -0.0802 -0.2920 -0.0989
 4183TIP3    H129121   5.588   4.931   1.015 -1.8336 -0.1579 -1.0376
 4183TIP3    H229122   5.617   4.847   1.138  0.8501  1.2340 -0.6660
 4184TIP3   OH229123   1.851   4.836   8.757  0.0822 -0.3592 -0.1557
 4184TIP3    H129124   1.787   4.896   8.794  1.7346  0.3650  1.7353
 4184TIP3    H229125   1.833   4.752   8.799  1.4391  0.2745  1.8506
 4185TIP3   OH229126   5.793   0.513   7.867 -0.2314 -0.1413 -0.4967
 4185TIP3    H129127   5.864   0.456   7.896  1.6315  2.9799  1.6853
 4185TIP3    H229128   5.829   0.559   7.791 -0.9871 -0.4753 -1.0648
 4186TIP3   OH229129   0.603   0.308   0.791 -0.1633 -0.3848 -0.0031
 4186TIP3    H129130   0.641   0.234   0.744 -0.4313 -0.5688  0.0701
 4186TIP3    H229131   0.508   0.294   0.786 -0.3230  0.8544 -1.5191
 4187TIP3   OH229132   1.178   4.057   9.080 -0.0132 -0.3649  0.4299
 4187TIP3    H129133   1.138   4.055   8.993  1.2289  0.0105 -0.1804
 4187TIP3    H229134   1.228   4.139   9.081 -0.4886 -0.0610  1.7301
 4188TIP3   OH229135   6.201   3.594   1.513  0.4328 -0.3092  0.2852
 4188TIP3    H129136   6.192   3.629   1.602 -0.8081  1.6171 -0.5581
 4188TIP3    H229137   6.240   3.665   1.463 -1.5205 -0.2986 -1.3405
 4189TIP3   OH229138   4.904   3.078   1.397 -0.0432  0.2597 -0.4605
 4189TIP3    H129139   4.859   3.157   1.427 -0.2045  0.1239 -0.3433
 4189TIP3    H229140   4.954   3.106   1.321  1.2142  0.8759  0.5444
 4190TIP3   OH229141   2.552   0.170   2.013 -0.2250 -0.1255  0.2584
 4190TIP3    H129142   2.463   0.149   2.041 -0.3494 -0.3705 -0.2900
 4190TIP3    H229143   2.572   0.253   2.055 -0.6916 -0.1008  0.4371
 4191TIP3   OH229144   3.281   5.445   6.977 -0.3819 -0.9869 -0.1807
 4191TIP3    H129145   3.272   5.529   6.932  0.9918  0.9229  2.7580
 4191TIP3    H229146   3.199   5.399   6.960 -1.5233  1.2887 -1.2616
 4192TIP3   OH229147   3.216   3.990   7.057 -0.2018 -0.1544 -0.4064
 4192TIP3    H129148   3.228   3.978   7.151  0.9576  0.4491 -0.4543
 4192TIP3    H229149   3.215   3.900   7.022 -3.2009 -0.5283  0.3978
 4193TIP3   OH229150   5.873   0.154   0.128 -0.3203 -0.9535  0.3732
 4193TIP3    H129151   5.905   0.149   0.218 -0.3759 -0.7360  0.4061
 4193TIP3    H229152   5.858   0.248   0.113  0.6104 -0.8860 -0.1871
 4194TIP3   OH229153   0.867   4.701   0.919  0.2684  0.6123  0.0054
 4194TIP3    H129154   0.833   4.769   0.861  0.0443  0.8219  0.3835
 4194TIP3    H229155   0.942   4.742   0.962  1.0247  0.1484 -0.8357
 4195TIP3   OH229156   3.303   1.335   6.491  0.1048 -0.3461  0.5111
 4195TIP3    H129157   3.303   1.417   6.442 -0.4602 -0.4035  0.4051
 4195TIP3    H229158   3.376   1.344   6.552  1.4801 -0.6900 -1.0146
 4196TIP3   OH229159   2.694   3.069   1.678  0.0583 -0.1166  0.4308
 4196TIP3    H129160   2.727   3.028   1.599  0.7099  0.1892  0.5355
 4196TIP3    H229161   2.767   3.065   1.740 -0.1410  0.4453  0.7157
 4197TIP3   OH229162   2.790   3.989   8.637 -0.3908 -0.1468  0.2628
 4197TIP3    H129163   2.834   4.055   8.585  0.2024 -0.9768 -0.3223
 4197TIP3    H229164   2.760   4.035   8.715 -0.3351  0.8818 -0.3037
 4198TIP3   OH229165   2.863   3.437   6.195  0.2852 -0.3962 -0.7911
 4198TIP3    H129166   2.777   3.477   6.204 -0.1356 -1.4140 -0.1290
 4198TIP3    H229167   2.910   3.461   6.275  0.8997  0.7653 -1.4697
 4199TIP3   OH229168   2.172   4.760   7.574 -0.2827  0.2339  0.3545
 4199TIP3    H129169   2.090   4.800   7.603 -0.4231  2.2619 -2.4087
 4199TIP3    H229170   2.149   4.670   7.553 -1.7092  0.6042  0.2093
 4200TIP3   OH229171   2.500   1.611   7.335 -0.2168 -0.1408 -0.2629
 4200TIP3    H129172   2.578   1.587   7.284 -1.0923 -0.4204 -1.5064
 4200TIP3    H229173   2.483   1.535   7.390 -0.6274 -0.8046 -1.2793
 4201TIP3   OH229174   1.922   3.065   0.437  0.8396 -0.2460 -0.3787
 4201TIP3    H129175   1.948   2.981   0.476 -0.7960 -1.1006 -1.0744
 4201TIP3    H229176   1.838   3.085   0.477  0.5139  0.3207 -1.3269
 4202TIP3   OH229177   1.683   4.164   2.482 -0.1290 -0.4909  0.0760
 4202TIP3    H129178   1.679   4.114   2.401 -1.4312 -2.5709  1.3364
 4202TIP3    H229179   1.709   4.100   2.548  2.8313  1.5172  1.0926
 4203TIP3   OH229180   2.520   1.692   9.104  0.0621  0.3253 -0.3594
 4203TIP3    H129181   2.511   1.770   9.050  1.2853  1.0051  0.3518
 4203TIP3    H229182   2.615   1.677   9.108 -0.0278 -0.0188  1.1147
 4204TIP3   OH229183   5.214   4.595   8.286 -0.8482  0.5603 -0.2003
 4204TIP3    H129184   5.171   4.629   8.208 -1.9395 -0.3537 -0.0344
 4204TIP3    H229185   5.265   4.668   8.320 -1.2810  1.3093 -1.1195
 4205TIP3   OH229186   2.109   0.144   2.746 -0.5186 -0.2405  0.0081
 4205TIP3    H129187   2.149   0.195   2.675  0.0642 -0.2227  0.3389
 4205TIP3    H229188   2.121   0.053   2.718  1.5367 -0.3362  0.9806
 4206TIP3   OH229189   4.332   4.704   0.894 -0.2249 -0.3027 -0.0372
 4206TIP3    H129190   4.296   4.733   0.810  1.1511 -0.5020 -0.7306
 4206TIP3    H229191   4.416   4.749   0.900  1.5210 -3.2106 -0.6758
 4207TIP3   OH229192   5.128   6.169   6.683  0.0923  0.4485 -0.4223
 4207TIP3    H129193   5.152   6.208   6.600 -0.8485 -0.5873 -1.2149
 4207TIP3    H229194   5.037   6.140   6.671  0.2765 -0.6559  0.5985
 4208TIP3   OH229195   3.438   0.393   8.005  0.0961  0.3410 -0.8224
 4208TIP3    H129196   3.384   0.339   8.063  0.2994 -0.2223 -1.1449
 4208TIP3    H229197   3.399   0.480   8.009 -1.0990 -0.1413 -1.3636
 4209TIP3   OH229198   3.717   4.635   2.246  0.0880 -0.2058 -0.1969
 4209TIP3    H129199   3.757   4.561   2.291 -0.1706 -0.8666 -1.0277
 4209TIP3    H229200   3.629   4.641   2.283  0.2995  0.0514  0.2738
 4210TIP3   OH229201   5.936   3.815   8.142  0.8655  0.1316 -0.5606
 4210TIP3    H129202   5.930   3.908   8.162 -1.1189 -0.0867  0.0856
 4210TIP3    H229203   5.957   3.773   8.225  2.2719 -0.0044 -0.9459
 4211TIP3   OH229204   0.438   6.128   0.403 -0.0124 -0.3029  0.4315
 4211TIP3    H129205   0.488   6.209   0.403  0.6756 -0.7234  0.3995
 4211TIP3    H229206   0.385   6.132   0.323 -1.0986  0.7797  1.1626
 4212TIP3   OH229207   4.771   4.211   3.033 -0.4639 -0.2457 -0.3862
 4212TIP3    H129208   4.807   4.228   3.120 -0.4275 -0.2650 -0.3978
 4212TIP3    H229209   4.713   4.286   3.017 -2.0490 -1.2094  0.5034
 4213TIP3   OH229210   4.894   1.145   2.262 -0.0353  0.4221  0.3871
 4213TIP3    H129211   4.931   1.117   2.345  0.1254 -0.6352 -0.0322
 4213TIP3    H229212   4.839   1.072   2.233  0.4087  0.5019 -0.7338
 4214TIP3   OH229213   0.869   5.365   7.162 -0.3220  0.0490  0.2231
 4214TIP3    H129214   0.898   5.423   7.232  0.0133 -0.7905  0.7914
 4214TIP3    H229215   0.818   5.422   7.103  0.5016  1.0370  0.4411
 4215TIP3   OH229216   5.895   5.936   1.959  0.5271 -0.2561 -0.0511
 4215TIP3    H129217   5.933   5.956   2.044  0.5790  0.0629 -0.1479
 4215TIP3    H229218   5.969   5.906   1.906  0.6417  0.3413 -0.2320
 4216TIP3   OH229219   2.901   3.067   1.840 -0.1459  0.4547  0.5100
 4216TIP3    H129220   2.892   3.026   1.926 -0.7272  1.4998  0.9727
 4216TIP3    H229221   2.929   3.157   1.859  1.2155  0.2715 -0.4799
 4217TIP3   OH229222   2.360   3.913   7.474 -0.5239  0.0763 -0.0819
 4217TIP3    H129223   2.402   3.969   7.539 -1.1339  2.1251 -1.3413
 4217TIP3    H229224   2.266   3.930   7.486 -0.8003 -1.5645  0.2308
 4218TIP3   OH229225   4.288   6.428   7.596  0.1300 -0.1727  0.6467
 4218TIP3    H129226   4.255   6.420   7.507 -0.4672  1.8011  0.6431
 4218TIP3    H229227   4.379   6.398   7.591 -0.4076 -1.7686 -0.2190
 4219TIP3   OH229228   1.805   6.445   7.402 -0.3137  0.7039  0.5150
 4219TIP3    H129229   1.792   6.486   7.317  1.5148 -1.7069 -1.0880
 4219TIP3    H229230   1.751   6.366   7.400  1.9075 -0.9181  0.2802
 4220TIP3   OH229231   5.848   2.987   9.112 -0.7255  0.6118 -0.7114
 4220TIP3    H129232   5.914   3.050   9.085 -0.5006  0.0997 -1.3619
 4220TIP3    H229233   5.834   3.006   9.205  0.2065  0.8327 -0.6072
 4221TIP3   OH229234   5.748   5.362   0.599  0.2557  0.2255 -0.2456
 4221TIP3    H129235   5.667   5.412   0.589 -1.0392 -1.4383  1.1902
 4221TIP3    H229236   5.783   5.354   0.510 -0.4061  2.1477 -0.7107
 4222TIP3   OH229237   4.062   1.708   1.606 -0.2415  0.6714 -0.8155
 4222TIP3    H129238   4.100   1.791   1.578  1.2922  0.7434  1.2393
 4222TIP3    H229239   4.123   1.642   1.572  0.5150  0.6532  0.4690
 4223TIP3   OH229240   1.646   0.377   3.094  0.3585  0.0142  0.4668
 4223TIP3    H129241   1.645   0.283   3.074 -0.9255  0.7335 -4.0593
 4223TIP3    H229242   1.560   0.408   3.067  1.4963  2.8195 -0.2841
 4224TIP3   OH229243   6.035   1.913   1.013  0.0770 -0.3175  0.0027
 4224TIP3    H129244   5.975   1.977   1.053  0.1110 -0.4208  0.2214
 4224TIP3    H229245   6.044   1.943   0.922  0.5598  0.3366  0.2547
 4225TIP3   OH229246   1.008   2.358   0.791  0.0397  0.6055 -0.1297
 4225TIP3    H129247   0.922   2.388   0.760 -0.1456  3.1417  2.4325
 4225TIP3    H229248   1.070   2.415   0.744 -0.0711  2.3803  1.7550
 4226TIP3   OH229249   2.248   1.869   0.878  0.0223 -0.1074  0.6666
 4226TIP3    H129250   2.306   1.806   0.921  0.6669 -0.5000 -0.7089
 4226TIP3    H229251   2.245   1.840   0.787 -2.0155  0.1567  0.5904
 4227TIP3   OH229252   1.876   1.025   1.347  0.0413 -0.3229  0.1307
 4227TIP3    H129253   1.859   0.970   1.270  0.2196 -2.4860  1.5452
 4227TIP3    H229254   1.797   1.016   1.401  0.2692  0.4632  0.6155
 4228TIP3   OH229255   1.786   0.923   0.117 -0.1713  0.7111  0.5079
 4228TIP3    H129256   1.732   0.939   0.040  1.8566 -0.5604 -1.2777
 4228TIP3    H229257   1.818   0.833   0.107  2.6311  1.5189  1.1580
 4229TIP3   OH229258   1.912   0.172   2.283 -0.4127 -0.0927 -0.0221
 4229TIP3    H129259   1.994   0.166   2.235 -0.7696 -0.4709 -0.5956
 4229TIP3    H229260   1.911   0.095   2.340 -0.2509  0.0502  0.1733
 4230TIP3   OH229261   1.801   5.999   1.487  0.5687 -0.0870 -0.0922
 4230TIP3    H129262   1.825   5.986   1.396 -0.5399  0.7632 -0.5316
 4230TIP3    H229263   1.839   5.923   1.533  0.9074 -0.6663 -1.2856
 4231TIP3   OH229264   4.282   1.779   8.314  0.2176 -0.5411  0.3248
 4231TIP3    H129265   4.299   1.833   8.237 -0.5510 -0.9245 -0.1266
 4231TIP3    H229266   4.312   1.692   8.289  0.7921 -0.4779  0.7890
 4232TIP3   OH229267   2.838   3.774   6.767  0.3779 -0.4810  0.2287
 4232TIP3    H129268   2.931   3.765   6.746  0.0681 -0.8247 -1.0635
 4232TIP3    H229269   2.795   3.782   6.682 -0.6323  1.3428  0.8676
 4233TIP3   OH229270   5.325   1.706   1.410  0.7447 -0.1999 -0.3746
 4233TIP3    H129271   5.412   1.746   1.418  0.7057  0.2588 -1.8248
 4233TIP3    H229272   5.328   1.661   1.325 -1.0806  1.5408 -1.4329
 4234TIP3   OH229273   2.605   2.058   8.433 -0.3809 -0.5957  0.1484
 4234TIP3    H129274   2.666   2.074   8.361  0.7508  0.3599  1.2962
 4234TIP3    H229275   2.603   2.140   8.482 -1.1606 -1.2297  1.2122
 4235TIP3   OH229276   4.552   5.504   9.390 -0.5460 -0.0950 -0.1681
 4235TIP3    H129277   4.559   5.412   9.417 -1.0929 -0.5498 -1.4622
 4235TIP3    H229278   4.596   5.506   9.305  0.9876  1.2328  0.6186
 4236TIP3   OH229279   6.149   1.327   8.496 -0.6007 -0.1068  0.1396
 4236TIP3    H129280   6.151   1.421   8.514  0.6162 -0.4272  1.9432
 4236TIP3    H229281   6.101   1.289   8.570 -0.6484 -0.9624 -0.3120
 4237TIP3   OH229282   0.824   1.654   1.859 -0.2833 -0.9089 -0.2640
 4237TIP3    H129283   0.917   1.667   1.841 -0.6563  0.3118 -1.4041
 4237TIP3    H229284   0.822   1.577   1.917  1.4698 -0.4945  0.4127
 4238TIP3   OH229285   5.837   6.161   7.956 -0.1886 -0.2862  0.1500
 4238TIP3    H129286   5.747   6.129   7.956 -0.5849  0.7999  0.1123
 4238TIP3    H229287   5.863   6.160   7.863  0.2121 -1.5659  0.2523
 4239TIP3   OH229288   4.802   2.209   6.686 -0.1464 -0.4445 -0.3565
 4239TIP3    H129289   4.812   2.116   6.708 -0.9464 -0.6553 -0.8553
 4239TIP3    H229290   4.863   2.254   6.745  1.8333 -1.4512 -1.5379
 4240TIP3   OH229291   3.565   1.167   8.065  0.3271 -0.2108 -0.2521
 4240TIP3    H129292   3.581   1.261   8.066 -1.7420  0.1665  0.8668
 4240TIP3    H229293   3.545   1.147   7.973  1.5282  0.2666 -0.6373
 4241TIP3   OH229294   1.206   1.038   8.996  0.3340  0.3586 -0.1184
 4241TIP3    H129295   1.241   0.962   8.949 -1.8817 -0.3130 -0.8289
 4241TIP3    H229296   1.254   1.041   9.078 -0.8026 -3.0656  0.8399
 4242TIP3   OH229297   3.482   5.206   0.426  0.3486  0.2222 -0.1838
 4242TIP3    H129298   3.518   5.291   0.452 -0.6266  0.7548 -0.5312
 4242TIP3    H229299   3.399   5.227   0.383 -0.6134 -0.9751  0.9746
 4243TIP3   OH229300   3.726   6.171   3.247 -0.2978  0.3046  0.3614
 4243TIP3    H129301   3.773   6.092   3.272  1.0202  1.0577  0.3599
 4243TIP3    H229302   3.633   6.148   3.254  0.0207 -1.8011 -1.4457
 4244TIP3   OH229303   5.433   3.083   7.504 -0.4404 -0.3671  0.0858
 4244TIP3    H129304   5.484   3.127   7.436 -1.8965 -0.2108 -0.9575
 4244TIP3    H229305   5.454   3.130   7.585  1.5836 -0.7750 -0.1648
 4245TIP3   OH229306   5.387   1.883   9.353  0.1828 -0.1640  0.3903
 4245TIP3    H129307   5.438   1.922   9.281 -3.0911 -0.0492 -2.1286
 4245TIP3    H229308   5.392   1.789   9.338  0.5755 -0.2118  0.8243
 4246TIP3   OH229309   2.304   3.746   1.131  0.3309  0.0909  0.3826
 4246TIP3    H129310   2.248   3.817   1.161  1.4828  0.4662  1.7238
 4246TIP3    H229311   2.374   3.741   1.196  1.6681 -0.6004 -1.0426
 4247TIP3   OH229312   2.427   0.048   2.398 -0.1695  0.0802  0.2322
 4247TIP3    H129313   2.482   0.031   2.475 -0.4449 -2.2383 -0.0356
 4247TIP3    H229314   2.374   0.123   2.424  2.7384  2.1960  0.6711
 4248TIP3   OH229315   6.312   1.953   9.147 -0.7460  0.0869 -0.1888
 4248TIP3    H129316   6.383   2.016   9.155  0.8825 -1.4561 -1.5801
 4248TIP3    H229317   6.239   1.992   9.195  0.7837  2.0943  0.6299
 4249TIP3   OH229318   5.867   3.282   0.232  0.5057 -0.0993 -0.2496
 4249TIP3    H129319   5.844   3.190   0.221  1.5940 -0.4036 -0.1266
 4249TIP3    H229320   5.802   3.329   0.180 -0.4156 -0.8889  0.1415
 4250TIP3   OH229321   3.098   4.111   9.191  0.0337 -0.4250 -0.4147
 4250TIP3    H129322   3.004   4.098   9.174 -0.2098 -1.1947  1.2796
 4250TIP3    H229323   3.103   4.129   9.284  1.6620 -1.4954 -0.2455
 4251TIP3   OH229324   1.801   1.837   2.555 -0.2376  0.1421 -0.1067
 4251TIP3    H129325   1.764   1.800   2.635  0.4177  0.5487  0.3951
 4251TIP3    H229326   1.728   1.881   2.512 -0.5837 -0.0566  0.2803
 4252TIP3   OH229327   3.057   4.606   8.054  0.4265  0.1900 -0.1278
 4252TIP3    H129328   3.044   4.514   8.077  0.6389  0.2255  0.1412
 4252TIP3    H229329   2.978   4.631   8.006 -1.3712  0.8920  2.9331
 4253TIP3   OH229330   3.012   5.844   7.380 -0.7196  0.1401  0.2213
 4253TIP3    H129331   3.011   5.824   7.474 -0.5821  0.0457  0.2031
 4253TIP3    H229332   2.936   5.797   7.345  0.1185 -1.1427  0.0250
 4254TIP3   OH229333   5.454   5.164   2.662 -0.0394  0.5508 -0.3753
 4254TIP3    H129334   5.462   5.253   2.628  0.7510  0.3062 -0.8513
 4254TIP3    H229335   5.540   5.124   2.647 -0.3947 -0.3054 -0.2063
 4255TIP3   OH229336   1.805   1.062   7.782  0.1688  0.6981 -0.2882
 4255TIP3    H129337   1.754   1.030   7.707 -0.2447  1.8083 -0.5020
 4255TIP3    H229338   1.788   0.998   7.852  0.5496 -0.3406 -1.1239
 4256TIP3   OH229339   3.308   3.340   2.492 -0.1399 -0.0637 -0.5707
 4256TIP3    H129340   3.251   3.394   2.546 -0.2361  0.2568 -0.9877
 4256TIP3    H229341   3.341   3.272   2.552 -0.6716 -0.0387 -0.2448
 4257TIP3   OH229342   2.340   2.210   6.783 -0.5972  0.3968 -0.0402
 4257TIP3    H129343   2.353   2.146   6.853 -1.5277  1.0191  0.7281
 4257TIP3    H229344   2.426   2.220   6.743 -0.4093 -1.2266 -0.0909
 4258TIP3   OH229345   5.494   4.427   7.716  0.0308  0.0711  0.2967
 4258TIP3    H129346   5.476   4.427   7.622  2.8877  1.7572 -0.3719
 4258TIP3    H229347   5.416   4.387   7.756 -1.0992 -1.0560 -2.7761
 4259TIP3   OH229348   5.313   4.652   1.923 -0.2961  0.3508 -0.6509
 4259TIP3    H129349   5.310   4.699   2.007 -0.5170  0.7626 -0.8882
 4259TIP3    H229350   5.236   4.682   1.876 -2.0434 -2.2830  0.2658
 4260TIP3   OH229351   6.115   0.545   0.067 -0.0036  0.1977  0.2864
 4260TIP3    H129352   6.053   0.560   0.138  1.6087  2.3815  1.3523
 4260TIP3    H229353   6.175   0.478   0.100  0.1727  0.5104  0.6009
 4261TIP3   OH229354   3.068   4.974   2.334  0.1980  0.2376 -0.3207
 4261TIP3    H129355   2.991   4.956   2.280 -0.7593 -1.7866  1.6075
 4261TIP3    H229356   3.065   5.069   2.348  0.1095  0.7513 -3.1603
 4262TIP3   OH229357   3.357   3.386   8.973  0.3273 -0.3873  0.5170
 4262TIP3    H129358   3.304   3.430   9.040  0.3631 -0.3613  0.5287
 4262TIP3    H229359   3.293   3.349   8.912  0.2326 -1.8918  1.4868
 4263TIP3   OH229360   4.247   0.655   0.625  0.1576 -0.0940  0.0832
 4263TIP3    H129361   4.156   0.635   0.649  0.3227 -0.9075  0.0436
 4263TIP3    H229362   4.264   0.740   0.665 -0.4420 -0.1953  0.5643
 4264TIP3   OH229363   2.853   0.211   0.292 -0.1577 -0.5038 -0.0794
 4264TIP3    H129364   2.875   0.150   0.362  0.3510 -0.3847 -0.1246
 4264TIP3    H229365   2.910   0.186   0.219  0.5925  0.4587  0.1442
 4265TIP3   OH229366   0.700   3.926   8.731  0.1099  0.3874  0.0827
 4265TIP3    H129367   0.626   3.870   8.706  0.6322 -0.3652  0.1760
 4265TIP3    H229368   0.777   3.879   8.698  0.6020  0.7598  0.6909
 4266TIP3   OH229369   4.535   3.239   2.667  0.2705 -0.2941 -0.0848
 4266TIP3    H129370   4.483   3.164   2.695  0.1654  0.7171  2.7154
 4266TIP3    H229371   4.471   3.304   2.639  0.2087 -0.3248 -0.0159
 4267TIP3   OH229372   1.711   6.400   0.631 -0.1987 -0.0753 -0.1039
 4267TIP3    H129373   1.675   6.457   0.563  0.5203  0.3290 -0.1605
 4267TIP3    H229374   1.775   6.345   0.585  0.5184  0.4165  0.2874
 4268TIP3   OH229375   0.548   0.498   9.214 -0.5407 -0.0531 -0.0175
 4268TIP3    H129376   0.499   0.455   9.283  0.8505 -0.2430  0.8957
 4268TIP3    H229377   0.519   0.456   9.133  0.6256 -2.6407  0.8024
 4269TIP3   OH229378   5.609   2.246   8.128  0.4517  0.1413 -0.2838
 4269TIP3    H129379   5.637   2.183   8.061  0.3988 -0.0213 -0.1533
 4269TIP3    H229380   5.654   2.327   8.105 -1.2301  0.7271 -1.8175
 4270TIP3   OH229381   5.814   4.513   0.695  0.2438 -0.4267  0.5768
 4270TIP3    H129382   5.858   4.450   0.638  2.2952  0.0906  1.5176
 4270TIP3    H229383   5.875   4.528   0.766 -0.6345  1.8602  0.9248
 4271TIP3   OH229384   3.787   5.759   3.114  0.0055  0.0139 -0.7381
 4271TIP3    H129385   3.836   5.682   3.141 -1.2705 -0.4574  0.3523
 4271TIP3    H229386   3.704   5.724   3.081 -0.2750  0.8799 -0.9829
 4272TIP3   OH229387   0.683   1.948   9.008 -0.3563 -0.2981  0.3353
 4272TIP3    H129388   0.626   1.887   8.961 -2.8043  1.7099  0.4612
 4272TIP3    H229389   0.685   2.026   8.953  0.5342  0.4612  1.3993
 4273TIP3   OH229390   5.454   5.117   0.882 -0.2505  0.7461  0.1836
 4273TIP3    H129391   5.494   5.136   0.967 -0.2759  0.3027  0.2990
 4273TIP3    H229392   5.525   5.130   0.819  0.0875 -0.0269  0.3859
 4274TIP3   OH229393   2.010   3.687   0.753 -0.6531  0.5139 -0.3027
 4274TIP3    H129394   1.957   3.615   0.717  0.1288  0.3171 -1.0914
 4274TIP3    H229395   2.071   3.708   0.683 -1.1266  2.2263 -0.2366
 4275TIP3   OH229396   2.055   5.514   7.079 -0.2448 -0.6162  0.3477
 4275TIP3    H129397   2.146   5.511   7.050 -0.7159  0.0397 -1.2702
 4275TIP3    H229398   2.046   5.599   7.123 -0.4586  0.0321 -0.9076
 4276TIP3   OH229399   5.768   1.883   9.389  0.9520  0.0971  0.9703
 4276TIP3    H129400   5.821   1.830   9.449  0.5648 -0.6675  0.6450
 4276TIP3    H229401   5.819   1.964   9.378  1.4261 -0.0978  1.6703
 4277TIP3   OH229402   5.316   0.131   7.549 -0.1637  0.4766  0.0869
 4277TIP3    H129403   5.297   0.121   7.455 -0.0914 -2.2271  0.2871
 4277TIP3    H229404   5.284   0.219   7.570 -0.9124  0.8586 -2.2794
 4278TIP3   OH229405   2.735   6.234   1.144  0.2108 -0.0481  0.1684
 4278TIP3    H129406   2.681   6.244   1.065 -2.0270 -0.1970  1.5774
 4278TIP3    H229407   2.825   6.245   1.114 -0.5362 -0.6015 -2.4641
 4279TIP3   OH229408   3.629   0.818   7.441 -0.3130  0.2661  0.0252
 4279TIP3    H129409   3.664   0.859   7.520 -0.7484  0.3085  0.1966
 4279TIP3    H229410   3.681   0.738   7.431  1.8525  1.7392 -1.3730
 4280TIP3   OH229411   5.098   3.526   7.415 -0.1958  0.4706  0.3728
 4280TIP3    H129412   5.114   3.541   7.322 -0.0253 -2.2797 -0.1116
 4280TIP3    H229413   5.173   3.473   7.444 -0.5139  0.8305  1.9628
 4281TIP3   OH229414   1.508   2.619   1.730  0.2682 -0.1361 -0.3047
 4281TIP3    H129415   1.459   2.550   1.774  0.1421 -0.8849 -1.5535
 4281TIP3    H229416   1.591   2.623   1.777 -0.2611 -0.1544  0.6568
 4282TIP3   OH229417   1.816   4.575   8.203 -0.3025  0.7565  0.1481
 4282TIP3    H129418   1.795   4.668   8.193 -0.7426  0.6205 -0.2411
 4282TIP3    H229419   1.818   4.561   8.298 -1.3837  0.9194  0.2056
 4283TIP3   OH229420   0.261   5.208   2.818  0.3995  0.4935  0.1448
 4283TIP3    H129421   0.266   5.242   2.729  1.1213 -2.1627 -0.9299
 4283TIP3    H229422   0.335   5.249   2.863  1.0042  0.6621 -0.9485
 4284TIP3   OH229423   3.589   2.347   2.911 -0.0753  0.3554  0.1394
 4284TIP3    H129424   3.621   2.394   2.988  1.3641 -0.3494 -0.0038
 4284TIP3    H229425   3.568   2.416   2.848  2.4338  0.8622 -0.2372
 4285TIP3   OH229426   0.667   3.580   7.485 -0.0665 -0.6686  0.0205
 4285TIP3    H129427   0.606   3.635   7.534  0.4447 -1.4293  1.5789
 4285TIP3    H229428   0.665   3.495   7.530  3.1063 -0.3464  1.0409
 4286TIP3   OH229429   2.113   1.976   1.950 -0.1295  0.0141  0.6795
 4286TIP3    H129430   2.173   2.050   1.955 -0.7852  0.8332 -2.0818
 4286TIP3    H229431   2.028   2.014   1.932 -0.3661 -1.3532 -1.5638
 4287TIP3   OH229432   2.496   4.064   7.679  0.6698 -0.0703  0.0578
 4287TIP3    H129433   2.508   4.028   7.767  0.3711  1.5084  0.7842
 4287TIP3    H229434   2.530   4.153   7.684  1.0770 -0.0998 -1.5706
 4288TIP3   OH229435   0.393   1.188   2.422  0.1177  0.2422 -0.6980
 4288TIP3    H129436   0.343   1.209   2.343 -1.3077 -0.2858  0.0181
 4288TIP3    H229437   0.484   1.186   2.394 -0.4200 -0.6864 -2.4860
 4289TIP3   OH229438   5.068   1.327   2.889 -0.1312  0.3988  0.4786
 4289TIP3    H129439   5.016   1.257   2.849  0.3936  0.7656 -0.9232
 4289TIP3    H229440   5.152   1.286   2.910  0.8729  0.9355 -2.0464
 4290TIP3   OH229441   3.537   0.524   9.040 -0.2098  0.0962 -0.1160
 4290TIP3    H129442   3.601   0.460   9.008  2.7074  0.3832  4.2033
 4290TIP3    H229443   3.473   0.471   9.088 -2.4933 -0.0180 -2.9871
 4291TIP3   OH229444   1.939   6.022   7.644  0.7795 -0.0280  0.0543
 4291TIP3    H129445   1.857   6.024   7.694 -0.1345 -0.7541 -1.3677
 4291TIP3    H229446   1.957   6.114   7.625 -0.6644  0.0608 -1.0872
 4292TIP3   OH229447   1.469   1.753   7.467  0.1536 -0.0906  0.3479
 4292TIP3    H129448   1.383   1.758   7.508 -0.2885 -0.9206 -0.4493
 4292TIP3    H229449   1.477   1.662   7.438  1.6811 -0.2651  1.2001
 4293TIP3   OH229450   0.712   6.051   0.183 -0.2253  0.2822  0.4886
 4293TIP3    H129451   0.799   6.047   0.142  0.7453  2.8869  2.1032
 4293TIP3    H229452   0.702   5.965   0.224  0.7286 -0.7418 -1.2621
 4294TIP3   OH229453   2.604   3.449   7.762 -0.2705 -0.5507 -0.1856
 4294TIP3    H129454   2.629   3.400   7.840  0.6646 -0.0145 -0.1439
 4294TIP3    H229455   2.638   3.537   7.776 -3.2308  0.6006  0.4266
 4295TIP3   OH229456   6.214   4.079   7.406  0.2422  0.1052 -0.2882
 4295TIP3    H129457   6.259   4.070   7.490 -1.2094 -2.7034  0.3196
 4295TIP3    H229458   6.275   4.042   7.342  0.1790 -0.5019 -0.0027
 4296TIP3   OH229459   0.136   0.345   8.887 -0.8916 -0.1780  0.2554
 4296TIP3    H129460   0.067   0.364   8.824 -0.2567  2.7309  0.3113
 4296TIP3    H229461   0.107   0.385   8.968  0.5344  0.5531  0.4455
 4297TIP3   OH229462   4.042   1.060   0.872 -0.0839 -0.4085 -0.0455
 4297TIP3    H129463   3.976   1.129   0.873 -0.6388 -0.9265  0.0582
 4297TIP3    H229464   4.094   1.074   0.951 -0.4745 -0.3703  0.2062
 4298TIP3   OH229465   0.878   4.465   0.162 -0.5067 -0.1626 -0.7384
 4298TIP3    H129466   0.919   4.408   0.227 -0.7268  0.5795  0.0734
 4298TIP3    H229467   0.835   4.405   0.102  0.5966 -0.9085 -0.8226
 4299TIP3   OH229468   1.055   1.018   8.744  0.0869  0.1648 -0.3129
 4299TIP3    H129469   0.995   0.949   8.769 -1.9055  1.6521 -0.7410
 4299TIP3    H229470   1.103   1.038   8.824  1.5610 -2.4117 -0.4480
 4300TIP3   OH229471   0.742   1.401   1.948  0.1567  0.0339 -0.1634
 4300TIP3    H129472   0.666   1.344   1.947  0.1138  0.0999 -0.5735
 4300TIP3    H229473   0.803   1.359   2.009 -0.1436 -0.0970  0.0471
 4301TIP3   OH229474   1.159   2.334   1.269 -0.9112 -0.0387  0.0186
 4301TIP3    H129475   1.082   2.390   1.269 -0.7597  0.3494 -2.8391
 4301TIP3    H229476   1.154   2.286   1.351 -4.9337 -1.0172 -0.5882
 4302TIP3   OH229477   3.334   2.411   1.591 -0.5067  0.2411  0.0920
 4302TIP3    H129478   3.379   2.439   1.670 -0.9583  1.8852 -0.2000
 4302TIP3    H229479   3.402   2.411   1.523 -0.3084 -0.3065  0.2856
 4303TIP3   OH229480   0.514   3.745   8.653 -0.4996 -0.2516  0.4878
 4303TIP3    H129481   0.426   3.770   8.679 -0.8144  1.9732 -2.2258
 4303TIP3    H229482   0.504   3.710   8.564  1.4378  1.5638 -0.5460
 4304TIP3   OH229483   5.580   3.858   0.222  0.3504 -0.1011 -0.6077
 4304TIP3    H129484   5.566   3.824   0.310 -1.0837  2.0408  0.0710
 4304TIP3    H229485   5.502   3.830   0.174  0.5453 -0.2030 -0.8681
 4305TIP3   OH229486   6.102   0.816   1.510 -0.1806 -0.0311  0.1128
 4305TIP3    H129487   6.191   0.830   1.543 -1.0277  2.5900  1.6000
 4305TIP3    H229488   6.074   0.735   1.551  0.2789  1.0307  2.7340
 4306TIP3   OH229489   5.290   4.975   7.954  0.1121 -0.0018  0.7029
 4306TIP3    H129490   5.382   4.998   7.941 -0.0841 -0.2388 -1.3453
 4306TIP3    H229491   5.285   4.947   8.045  2.0234  0.1868  0.8992
 4307TIP3   OH229492   5.628   2.011   7.566 -0.6583 -0.1103  0.5353
 4307TIP3    H129493   5.567   1.960   7.620  0.4803 -1.6227  0.4587
 4307TIP3    H229494   5.715   1.988   7.600 -0.1111  2.5232  1.1088
 4308TIP3   OH229495   3.360   2.889   2.995  0.0526  0.4419  0.4765
 4308TIP3    H129496   3.371   2.803   3.034  1.1907  0.4250  0.1452
 4308TIP3    H229497   3.392   2.880   2.905 -1.8672  0.6591 -0.2802
 4309TIP3   OH229498   2.085   0.781   9.227  0.0627  0.4742 -0.0298
 4309TIP3    H129499   2.043   0.852   9.178 -0.2960 -0.6439 -1.3930
 4309TIP3    H229500   2.072   0.703   9.173 -0.7520 -0.9220  2.0712
 4310TIP3   OH229501   2.720   2.494   8.834  0.5360  0.3556  0.2216
 4310TIP3    H129502   2.676   2.570   8.795 -0.7395 -0.6382 -0.3398
 4310TIP3    H229503   2.652   2.452   8.886  1.0860 -0.6806  0.1189
 4311TIP3   OH229504   0.620   2.160   8.863 -0.2752  0.3193 -0.2311
 4311TIP3    H129505   0.682   2.208   8.809 -0.3246  0.0440 -0.5341
 4311TIP3    H229506   0.534   2.178   8.824 -0.3465  0.3812 -0.0487
 4312TIP3   OH229507   6.258   2.854   7.324  0.2795  0.4345 -0.2866
 4312TIP3    H129508   6.351   2.875   7.311  0.8377 -1.8977 -0.5535
 4312TIP3    H229509   6.258   2.798   7.402 -1.2720  2.5217  1.3061
 4313TIP3   OH229510   0.299   4.790   7.665  0.1703  0.4287 -0.7462
 4313TIP3    H129511   0.300   4.697   7.643  0.2884  0.1124  0.5360
 4313TIP3    H229512   0.210   4.808   7.694  0.9867 -0.2052  2.5615
 4314TIP3   OH229513   5.705   2.573   6.604  0.1131 -0.1286  0.1536
 4314TIP3    H129514   5.794   2.546   6.629 -0.2954  0.3735  2.3272
 4314TIP3    H229515   5.650   2.498   6.625 -0.0766 -0.1829 -0.5258
 4315TIP3   OH229516   5.217   1.841   7.574  0.3968 -0.2199 -0.4593
 4315TIP3    H129517   5.168   1.922   7.564  1.0827  0.1343 -1.1090
 4315TIP3    H229518   5.166   1.776   7.525  0.2885  0.0188 -0.6690
 4316TIP3   OH229519   5.099   1.905   0.586  0.1629  0.2765 -0.1598
 4316TIP3    H129520   5.193   1.919   0.581  0.2234  1.0087  1.8935
 4316TIP3    H229521   5.061   1.992   0.579 -0.3413  0.0241 -0.6248
 4317TIP3   OH229522   5.549   2.563   8.351  0.2807  0.2078 -0.3829
 4317TIP3    H129523   5.528   2.651   8.383  2.7272  0.9642 -0.6539
 4317TIP3    H229524   5.511   2.504   8.416  4.4670  1.6115  3.8613
 4318TIP3   OH229525   1.658   4.713   6.319 -0.6279 -0.1166 -0.0450
 4318TIP3    H129526   1.638   4.776   6.389 -0.8148  0.2952 -0.4616
 4318TIP3    H229527   1.579   4.662   6.309 -0.7124  0.0381 -0.1736
 4319TIP3   OH229528   5.644   5.122   0.696  0.0984 -0.3391  0.3015
 4319TIP3    H129529   5.688   5.204   0.675 -3.0329  1.8725  1.5989
 4319TIP3    H229530   5.618   5.086   0.611  0.2071  0.8424 -0.2539
 4320TIP3   OH229531   0.477   5.581   1.876 -0.0334 -0.7206  0.0057
 4320TIP3    H129532   0.539   5.631   1.929  0.3495 -0.7156 -0.4466
 4320TIP3    H229533   0.429   5.528   1.940 -0.2027 -0.0427  0.4528
 4321TIP3   OH229534   2.861   5.927   8.579  0.2045 -0.1348  0.0678
 4321TIP3    H129535   2.925   5.991   8.610 -0.4154  0.2269  0.6008
 4321TIP3    H229536   2.914   5.849   8.558  0.6004 -0.6056  2.5614
 4322TIP3   OH229537   2.862   5.218   8.419  0.3408 -0.5047 -0.1151
 4322TIP3    H129538   2.906   5.237   8.502  0.8423  0.3004 -0.5433
 4322TIP3    H229539   2.780   5.176   8.444  0.8987 -1.1094  0.7446
 4323TIP3   OH229540   1.033   5.236   2.019 -0.2946 -0.5943  0.0738
 4323TIP3    H129541   1.049   5.155   2.068 -0.0986 -0.6335 -0.0569
 4323TIP3    H229542   1.091   5.231   1.944  1.3000  0.6290  1.1554
 4324TIP3   OH229543   0.877   3.686   7.757 -0.2542 -0.0734  0.2608
 4324TIP3    H129544   0.920   3.741   7.823 -0.5313 -0.2001  0.5502
 4324TIP3    H229545   0.876   3.598   7.795  2.0639 -0.7618 -1.0541
 4325TIP3   OH229546   4.801   6.266   7.969 -0.4951 -0.2706  0.0416
 4325TIP3    H129547   4.824   6.193   8.026 -1.1113  0.6719  1.5506
 4325TIP3    H229548   4.878   6.323   7.972 -1.6765  1.3561  2.6006
 4326TIP3   OH229549   3.945   0.649   6.789 -0.1406  0.1171 -0.3279
 4326TIP3    H129550   3.897   0.584   6.738 -0.8861  0.8356 -0.5632
 4326TIP3    H229551   3.877   0.704   6.827  0.4909  1.1388 -0.6387
 4327TIP3   OH229552   1.568   6.020   9.201 -0.6346 -0.4380  0.5225
 4327TIP3    H129553   1.607   6.048   9.118 -1.4194 -1.3575 -0.1848
 4327TIP3    H229554   1.537   5.931   9.184 -1.0083 -0.5603  1.7427
 4328TIP3   OH229555   2.576   2.223   6.344  0.0098  0.2122 -0.2905
 4328TIP3    H129556   2.666   2.253   6.354 -0.0284  0.4300 -0.5914
 4328TIP3    H229557   2.561   2.221   6.250 -0.2624  0.0678 -0.2461
 4329TIP3   OH229558   6.088   4.382   0.142  0.4740  0.0608  0.3906
 4329TIP3    H129559   6.039   4.301   0.141  0.4659  0.0734 -0.4049
 4329TIP3    H229560   6.022   4.451   0.136  0.5518  0.0910 -0.1585
 4330TIP3   OH229561   2.487   4.091   2.116  0.0911  0.0554  0.1030
 4330TIP3    H129562   2.539   4.122   2.043  0.4613  0.4128  0.5108
 4330TIP3    H229563   2.487   3.995   2.107 -0.3744  0.1229 -0.6935
 4331TIP3   OH229564   3.237   4.345   9.107 -0.0819 -0.5364 -0.3137
 4331TIP3    H129565   3.332   4.335   9.107  0.2474  1.9992 -0.7336
 4331TIP3    H229566   3.204   4.264   9.148  2.2793 -1.0466  0.7151
 4332TIP3   OH229567   0.115   2.599   1.738 -0.0628 -0.3607 -0.0420
 4332TIP3    H129568   0.149   2.527   1.684  1.4515  0.1465  0.1829
 4332TIP3    H229569   0.020   2.585   1.739  0.1244 -1.9401 -0.5851
 4333TIP3   OH229570   3.557   5.410   6.986  0.2512  0.0471  0.1588
 4333TIP3    H129571   3.563   5.426   6.892  0.5284  0.4784  0.2458
 4333TIP3    H229572   3.466   5.385   7.001 -0.5122  2.4979  0.1334
 4334TIP3   OH229573   1.224   0.114   7.690 -0.3476  0.5306 -0.4837
 4334TIP3    H129574   1.304   0.089   7.735 -1.2353 -1.8820 -0.0932
 4334TIP3    H229575   1.218   0.208   7.701  1.6857  0.5698  0.6935
 4335TIP3   OH229576   4.198   0.873   0.220  0.3415  0.3799 -0.1524
 4335TIP3    H129577   4.207   0.965   0.195  3.6334 -0.1551 -1.4908
 4335TIP3    H229578   4.177   0.828   0.138 -2.7452 -0.0457  0.7304
 4336TIP3   OH229579   6.166   4.701   0.097  0.1830 -0.0022  0.1743
 4336TIP3    H129580   6.196   4.664   0.014 -0.8945  0.1117 -0.2816
 4336TIP3    H229581   6.077   4.668   0.107 -0.3914  1.5053  0.3368
 4337TIP3   OH229582   3.402   1.630   2.543 -0.6395  0.1389  0.3434
 4337TIP3    H129583   3.448   1.661   2.621  0.6344  0.1906 -0.4041
 4337TIP3    H229584   3.418   1.536   2.541 -2.8762 -0.3453  1.5398
 4338TIP3   OH229585   1.704   1.944   8.761 -0.1538  0.0293 -0.2607
 4338TIP3    H129586   1.754   2.001   8.702  0.0110 -0.7348 -0.8805
 4338TIP3    H229587   1.670   1.875   8.704 -0.2855 -0.5329  0.4818
 4339TIP3   OH229588   6.211   3.218   2.544  0.5447 -0.2418 -0.4436
 4339TIP3    H129589   6.193   3.242   2.635 -0.7515 -1.0482 -0.4651
 4339TIP3    H229590   6.191   3.124   2.539 -0.9710  0.1007 -1.9115
 4340TIP3   OH229591   0.907   4.589   2.045 -0.4546  0.3699  0.5312
 4340TIP3    H129592   0.847   4.627   1.980  0.1065  1.4372  0.6237
 4340TIP3    H229593   0.874   4.500   2.057  0.3179 -0.4351 -2.3759
 4341TIP3   OH229594   1.895   3.929   0.101  0.0178  0.1952  0.0096
 4341TIP3    H129595   1.875   3.955   0.011 -0.4841  1.1376  0.3823
 4341TIP3    H229596   1.847   3.991   0.155  0.1237 -0.5114  0.9355
 4342TIP3   OH229597   0.039   2.533   2.262  0.7280 -0.6460 -0.8819
 4342TIP3    H129598   0.094   2.455   2.254 -0.7097 -1.6461 -1.4591
 4342TIP3    H229599   0.030   2.546   2.356 -0.9647 -2.6715 -0.6920
 4343TIP3   OH229600   2.986   6.418   1.798  0.2289  0.0384 -0.4912
 4343TIP3    H129601   2.958   6.489   1.857 -2.3025 -1.2110 -0.0269
 4343TIP3    H229602   3.050   6.369   1.849  0.6796  0.9779 -0.1313
 4344TIP3   OH229603   2.241   1.682   9.439 -0.1344 -0.5750  0.1715
 4344TIP3    H129604   2.165   1.736   9.418  0.5752  0.6296  0.5547
 4344TIP3    H229605   2.301   1.695   9.366  1.0655  1.1837  1.3855
 4345TIP3   OH229606   1.100   1.998   6.789 -0.0323 -0.0502  0.0176
 4345TIP3    H129607   1.113   2.078   6.839 -0.8238  0.4376 -0.5449
 4345TIP3    H229608   1.172   1.997   6.726  0.1199  0.0948  0.1906
 4346TIP3   OH229609   5.789   4.143   8.135  0.0074 -0.0208 -0.2093
 4346TIP3    H129610   5.853   4.177   8.196 -0.2958 -1.3860  0.9255
 4346TIP3    H229611   5.827   4.160   8.048  1.1612  0.5685  0.3892
 4347TIP3   OH229612   5.514   5.758   1.517 -0.2062 -0.5268  0.3503
 4347TIP3    H129613   5.486   5.758   1.608  0.0960 -1.3681  0.4539
 4347TIP3    H229614   5.497   5.668   1.487 -0.2761 -0.2639 -0.4107
 4348TIP3   OH229615   5.986   3.713   8.393  0.1590  0.1468 -0.3725
 4348TIP3    H129616   5.915   3.759   8.438 -1.1456 -0.5357 -1.6321
 4348TIP3    H229617   5.973   3.621   8.417 -0.3935 -0.1885 -1.8628
 4349TIP3   OH229618   3.625   1.223   2.109 -0.1582  0.2388  0.0672
 4349TIP3    H129619   3.589   1.283   2.044 -0.8921 -0.4008 -0.1374
 4349TIP3    H229620   3.581   1.140   2.092 -0.3936  0.0590  1.3959
 4350TIP3   OH229621   5.326   4.184   0.598  0.2635  0.3509  0.6639
 4350TIP3    H129622   5.274   4.142   0.666 -0.1881 -0.4725 -0.1623
 4350TIP3    H229623   5.391   4.118   0.573 -2.2531 -1.1702 -2.6961
 4351TIP3   OH229624   4.524   5.904   1.315 -0.3188  0.4185  0.1338
 4351TIP3    H129625   4.502   5.997   1.312 -1.0359  0.2197 -2.2003
 4351TIP3    H229626   4.591   5.892   1.248 -0.0020 -0.7074  0.6189
 4352TIP3   OH229627   1.788   0.072   0.885  0.2274 -0.1668  0.3482
 4352TIP3    H129628   1.864   0.017   0.867  1.3398  1.8189 -1.5076
 4352TIP3    H229629   1.792   0.141   0.819 -0.8808  2.3873  2.7594
 4353TIP3   OH229630   0.352   5.934   8.464  0.0051  0.6999 -0.0753
 4353TIP3    H129631   0.412   6.003   8.494  0.8660  0.4995 -1.2756
 4353TIP3    H229632   0.406   5.855   8.459 -1.1147 -0.2732  1.9079
 4354TIP3   OH229633   2.372   5.047   7.735 -0.1460  0.0785 -0.7024
 4354TIP3    H129634   2.402   5.110   7.801 -1.8968  0.0399  0.2156
 4354TIP3    H229635   2.300   5.092   7.691 -1.7406 -1.3708  0.2769
 4355TIP3   OH229636   2.959   1.042   6.559 -0.4996  0.4844  0.0992
 4355TIP3    H129637   3.019   0.979   6.599 -0.5335 -0.1812 -0.8587
 4355TIP3    H229638   2.994   1.128   6.585 -0.7087  0.0910  1.7923
 4356TIP3   OH229639   5.811   6.139   7.660 -0.0527  0.2085  0.3885
 4356TIP3    H129640   5.828   6.166   7.570 -0.0744  1.2031  0.6677
 4356TIP3    H229641   5.767   6.055   7.652 -0.2065  0.3658 -0.5339
 4357TIP3   OH229642   6.442   3.644   6.197 -0.0376  0.5572  0.2406
 4357TIP3    H129643   6.423   3.555   6.169 -0.3630  0.3763  1.0083
 4357TIP3    H229644   6.364   3.695   6.172  0.6816  0.9250 -1.4012
 4358TIP3   OH229645   0.532   0.263   1.511  0.0098 -0.0474  0.2328
 4358TIP3    H129646   0.449   0.288   1.552 -0.6129  1.2073 -1.6600
 4358TIP3    H229647   0.529   0.167   1.509 -2.1944 -0.0161 -1.2435
 4359TIP3   OH229648   4.530   2.317   2.614 -0.0314 -0.7138 -0.2457
 4359TIP3    H129649   4.505   2.401   2.651  1.3861  0.1098 -1.0860
 4359TIP3    H229650   4.461   2.257   2.643 -0.8802  0.6398  0.6620
 4360TIP3   OH229651   0.599   2.796   2.168  0.3369 -0.0658  0.0273
 4360TIP3    H129652   0.556   2.851   2.102  0.2433 -1.1919 -0.9014
 4360TIP3    H229653   0.673   2.756   2.121  0.0388 -1.1920  0.4781
 4361TIP3   OH229654   1.298   5.438   7.137  0.3815  0.4922 -0.3479
 4361TIP3    H129655   1.216   5.447   7.186 -0.0430  1.4526 -1.2012
 4361TIP3    H229656   1.340   5.523   7.146  1.6632 -0.2153  0.6900
 4362TIP3   OH229657   4.436   4.831   8.213 -0.7796 -0.2265 -0.3637
 4362TIP3    H129658   4.403   4.831   8.124 -0.5513 -1.4304 -0.4636
 4362TIP3    H229659   4.397   4.754   8.254  1.7180 -1.6332 -0.4491
 4363TIP3   OH229660   2.199   3.010   7.977  0.3425  0.0105  0.3682
 4363TIP3    H129661   2.267   2.994   7.911  0.0875 -1.0792  0.3548
 4363TIP3    H229662   2.165   3.096   7.955 -0.9564 -1.0150 -2.0595
 4364TIP3   OH229663   0.401   2.952   7.280 -0.1385  0.3626  0.3354
 4364TIP3    H129664   0.411   2.943   7.186  0.2606 -0.2484  0.4312
 4364TIP3    H229665   0.373   2.866   7.310 -1.3692  0.8460  0.6426
 4365TIP3   OH229666   2.534   4.204   8.545 -0.3933 -0.1859 -0.1635
 4365TIP3    H129667   2.442   4.229   8.537 -0.0972  2.9980  3.5929
 4365TIP3    H229668   2.532   4.123   8.597 -1.2048  1.7239  3.0637
 4366TIP3   OH229669   2.974   5.282   9.205  0.1719  0.2440  0.4108
 4366TIP3    H129670   3.052   5.288   9.150  0.4931  0.9200  0.9233
 4366TIP3    H229671   2.907   5.332   9.158  0.6821  1.5366  1.0125
 4367TIP3   OH229672   3.972   5.442   1.028 -0.2077  0.5955  0.1134
 4367TIP3    H129673   4.056   5.446   1.074 -0.3623  0.1572  0.4388
 4367TIP3    H229674   3.939   5.531   1.033 -0.0772  0.6229  0.5876
 4368TIP3   OH229675   1.577   0.109   7.616 -0.0441 -0.0327  0.4306
 4368TIP3    H129676   1.663   0.107   7.576 -0.2111 -0.8326  0.0882
 4368TIP3    H229677   1.594   0.115   7.710  0.4456 -1.9137  0.5019
 4369TIP3   OH229678   3.160   2.223   0.872  0.2082 -0.2814  0.1473
 4369TIP3    H129679   3.109   2.142   0.870  1.5821 -1.1629 -1.6348
 4369TIP3    H229680   3.154   2.252   0.963  0.4498 -2.9164  1.1032
 4370TIP3   OH229681   4.135   5.904   0.055 -0.0900  0.2979 -0.3227
 4370TIP3    H129682   4.214   5.902   0.109  1.0854  0.4032 -1.9720
 4370TIP3    H229683   4.116   5.998   0.045 -1.6069  0.2725  1.6392
 4371TIP3   OH229684   1.589   0.036   6.923 -0.0864  0.0096  0.5551
 4371TIP3    H129685   1.656   0.085   6.971 -1.3681  0.3465  2.0552
 4371TIP3    H229686   1.627   0.024   6.836  0.9986  2.1377  0.6712
 4372TIP3   OH229687   2.365   0.271   2.217 -0.4601  0.3305 -1.0832
 4372TIP3    H129688   2.328   0.277   2.305  0.6130  1.9162 -0.7007
 4372TIP3    H229689   2.362   0.178   2.196 -1.1883 -0.0148  0.4229
 4373TIP3   OH229690   4.789   4.500   2.737  0.2825 -0.6597 -0.1208
 4373TIP3    H129691   4.749   4.466   2.817  0.3291 -1.6691 -0.5087
 4373TIP3    H229692   4.879   4.467   2.739 -0.0460 -1.6669 -1.1379
 4374TIP3   OH229693   4.358   4.295   0.788  0.3894 -0.4132 -0.2963
 4374TIP3    H129694   4.449   4.325   0.784  0.2395 -0.0171 -0.7459
 4374TIP3    H229695   4.328   4.295   0.697 -0.3233  0.2722 -0.0730
 4375TIP3   OH229696   2.951   3.810   1.570  0.4246 -0.0445  0.0653
 4375TIP3    H129697   2.858   3.833   1.568  0.3025 -0.5344 -0.9947
 4375TIP3    H229698   2.997   3.894   1.565  0.0119  0.1223 -1.2675
 4376TIP3   OH229699   5.551   5.794   7.163  0.3810 -0.3807  0.7379
 4376TIP3    H129700   5.567   5.828   7.075 -0.8881  1.4383  1.1500
 4376TIP3    H229701   5.627   5.738   7.181  1.1582  0.0010 -1.1153
 4377TIP3   OH229702   5.081   5.817   9.338  0.3168 -0.0417  0.0526
 4377TIP3    H129703   5.063   5.893   9.282  1.5133 -1.3837 -2.2860
 4377TIP3    H229704   5.050   5.844   9.424  1.2148  3.3457 -0.5176
 4378TIP3   OH229705   1.465   5.045   1.419 -0.3958 -0.4272  0.0302
 4378TIP3    H129706   1.555   5.077   1.425 -0.8007  0.6879  0.3532
 4378TIP3    H229707   1.453   4.993   1.498 -0.0853 -0.4461  0.0669
 4379TIP3   OH229708   1.861   3.980   7.504 -0.4887 -0.2366  0.5686
 4379TIP3    H129709   1.790   4.007   7.562 -1.6210  0.1382 -0.9316
 4379TIP3    H229710   1.876   3.887   7.524  0.3203  0.2915  2.6027
 4380TIP3   OH229711   6.069   2.263   1.688 -0.4579  0.8409 -0.7479
 4380TIP3    H129712   5.994   2.235   1.635 -0.9122  0.1460  0.2347
 4380TIP3    H229713   6.049   2.353   1.711 -1.6735  0.2548  0.6196
 4381TIP3   OH229714   5.960   3.407   7.074 -0.0942  0.5002 -0.2228
 4381TIP3    H129715   5.992   3.447   7.154  0.1614  0.8372 -0.4881
 4381TIP3    H229716   6.031   3.419   7.011 -1.0265  2.0056 -1.0636
 4382TIP3   OH229717   5.399   3.787   6.896  0.1305 -0.0100  0.1951
 4382TIP3    H129718   5.458   3.799   6.970  0.1710  0.2008  0.1294
 4382TIP3    H229719   5.335   3.722   6.926  1.6563 -1.9006 -0.4852
 4383TIP3   OH229720   3.316   2.896   0.642  0.0907  0.2042 -0.1660
 4383TIP3    H129721   3.278   2.893   0.555  0.0357  0.5618 -0.1554
 4383TIP3    H229722   3.411   2.900   0.627  0.0391  3.7084 -0.3354
 4384TIP3   OH229723   3.562   3.548   1.212 -0.2331 -0.1727 -0.2915
 4384TIP3    H129724   3.605   3.553   1.297 -0.0142  3.2975 -0.4907
 4384TIP3    H229725   3.504   3.471   1.219 -0.7308  0.3736  3.2344
 4385TIP3   OH229726   4.909   1.294   0.576 -0.2566 -0.2947  0.2383
 4385TIP3    H129727   4.979   1.292   0.511  0.6883 -3.7703  1.1317
 4385TIP3    H229728   4.935   1.363   0.638  0.7331  0.5402 -1.0577
 4386TIP3   OH229729   2.925   0.091   6.774 -0.1694 -0.0629 -0.1347
 4386TIP3    H129730   2.982   0.119   6.702 -0.5853  1.1696 -0.0170
 4386TIP3    H229731   2.878   0.171   6.799 -0.7240 -0.6882  0.8746
 4387TIP3   OH229732   0.403   1.955   9.343 -0.2599  0.0731  0.5765
 4387TIP3    H129733   0.490   1.917   9.335  0.0089  0.7305  0.3763
 4387TIP3    H229734   0.345   1.890   9.303  0.0997 -0.4952  0.9675
 4388TIP3   OH229735   6.169   2.741   2.258  0.2484 -0.7861 -0.5997
 4388TIP3    H129736   6.210   2.802   2.197  0.5933 -1.7069 -1.2980
 4388TIP3    H229737   6.076   2.748   2.240  0.3947 -1.5425 -1.7040
 4389TIP3   OH229738   3.741   0.653   7.752 -0.1195  0.4839 -0.0240
 4389TIP3    H129739   3.675   0.720   7.772 -0.8917 -0.6736  1.5516
 4389TIP3    H229740   3.785   0.638   7.836  1.9962  1.0381 -0.9919
 4390TIP3   OH229741   3.580   6.222   7.990  0.0807 -0.4497 -0.1376
 4390TIP3    H129742   3.518   6.150   7.977 -0.9126  0.3934 -0.1807
 4390TIP3    H229743   3.665   6.184   7.967 -0.6211 -1.1643 -1.7186
 4391TIP3   OH229744   0.308   1.289   1.035 -0.2231 -0.2459  0.1523
 4391TIP3    H129745   0.354   1.206   1.050 -1.0997 -0.6535  0.6508
 4391TIP3    H229746   0.378   1.351   1.015  0.4796 -1.0217  0.1170
 4392TIP3   OH229747   3.708   4.990   7.858  0.1394  0.2196  0.1034
 4392TIP3    H129748   3.686   4.913   7.911  0.2309  0.4947  0.5517
 4392TIP3    H229749   3.631   5.004   7.802 -0.0682  0.0802  0.3508
 4393TIP3   OH229750   3.755   0.207   7.976 -0.3553 -0.3583  0.0420
 4393TIP3    H129751   3.754   0.272   8.047  1.5347 -0.3786  0.1449
 4393TIP3    H229752   3.804   0.249   7.905 -0.4598 -1.0920 -0.4794
 4394TIP3   OH229753   1.148   4.100   7.908 -0.1379  0.0559 -0.0178
 4394TIP3    H129754   1.167   4.146   7.826  0.2759  1.2170  0.6997
 4394TIP3    H229755   1.230   4.102   7.957 -0.6193  0.2212  0.8131
 4395TIP3   OH229756   3.146   4.224   0.036  0.3095 -0.3115  0.0568
 4395TIP3    H129757   3.227   4.247   0.082  0.3154  0.8062 -0.4590
 4395TIP3    H229758   3.095   4.305   0.036 -0.1619 -0.5856 -0.9283
 4396TIP3   OH229759   4.966   0.961   9.210 -0.4610  0.1214  1.1189
 4396TIP3    H129760   4.969   1.023   9.138  0.1273 -0.9413  0.1950
 4396TIP3    H229761   4.883   0.978   9.254 -0.0543  1.9342  1.2573
 4397TIP3   OH229762   3.429   2.131   6.929  0.2545 -0.1911 -0.9363
 4397TIP3    H129763   3.457   2.201   6.989  1.2207 -1.2967 -0.0362
 4397TIP3    H229764   3.427   2.173   6.843 -0.4043  1.2531 -0.2697
 4398TIP3   OH229765   5.646   2.906   6.871  0.2027  0.7487 -0.5701
 4398TIP3    H129766   5.736   2.925   6.896 -0.1472 -0.1399  1.4974
 4398TIP3    H229767   5.594   2.975   6.913 -0.2428  0.2957 -0.3749
 4399TIP3   OH229768   3.415   1.676   2.157  0.0633 -0.4800 -0.7365
 4399TIP3    H129769   3.364   1.754   2.136  0.6102 -0.1387 -0.8239
 4399TIP3    H229770   3.484   1.674   2.090  1.1034 -0.0499  0.2786
 4400TIP3   OH229771   4.776   0.924   0.597  0.2354  0.5304 -0.4509
 4400TIP3    H129772   4.838   0.948   0.666  0.8874  0.5867 -1.0507
 4400TIP3    H229773   4.691   0.925   0.641  0.8040 -1.1746  0.7932
 4401TIP3   OH229774   5.747   4.047   3.012  0.3581 -0.2038  0.6429
 4401TIP3    H129775   5.819   3.996   3.049  1.1388  1.4144  1.4725
 4401TIP3    H229776   5.746   4.128   3.063 -2.6649 -0.5230  1.3025
 4402TIP3   OH229777   4.580   0.204   1.328  0.6032 -0.2707 -0.0531
 4402TIP3    H129778   4.577   0.187   1.234  0.6259  1.0595 -0.3077
 4402TIP3    H229779   4.495   0.244   1.348  1.4491  1.5696  0.0391
 4403TIP3   OH229780   0.311   5.506   9.332 -0.4864  0.2427  0.1634
 4403TIP3    H129781   0.349   5.454   9.262 -0.7893 -1.3792  1.1490
 4403TIP3    H229782   0.384   5.525   9.391 -0.1788  1.8272 -0.6767
 4404TIP3   OH229783   2.045   4.243   6.434 -0.2848 -0.2060 -0.2869
 4404TIP3    H129784   2.000   4.299   6.370 -1.9225 -0.0857  0.9281
 4404TIP3    H229785   2.074   4.167   6.382 -1.3210  0.0146 -1.2343
 4405TIP3   OH229786   0.574   0.891   6.359  0.3250  0.2725 -0.2260
 4405TIP3    H129787   0.636   0.944   6.409  1.5684 -0.4732 -0.9193
 4405TIP3    H229788   0.606   0.801   6.368 -1.5615 -0.3694  0.6773
 4406TIP3   OH229789   0.392   0.619   1.846 -0.0073 -0.5579 -0.4547
 4406TIP3    H129790   0.343   0.536   1.847  0.3232 -0.7579  0.4461
 4406TIP3    H229791   0.484   0.592   1.847  0.1154 -0.1762 -1.1362
 4407TIP3   OH229792   2.283   5.089   2.473 -0.7026  0.3283  0.2133
 4407TIP3    H129793   2.286   5.010   2.418  3.1256 -0.3500  1.0624
 4407TIP3    H229794   2.257   5.057   2.559  0.8578 -0.1350  0.5599
 4408TIP3   OH229795   3.377   3.810   0.518 -0.4545 -0.1469  0.6366
 4408TIP3    H129796   3.314   3.757   0.470 -1.0532  1.0509  0.0667
 4408TIP3    H229797   3.445   3.748   0.544 -0.4727 -0.9807 -1.1292
 4409TIP3   OH229798   4.203   1.659   2.844 -0.3064 -0.6870  0.5008
 4409TIP3    H129799   4.127   1.700   2.885  0.0228 -0.6858  1.1242
 4409TIP3    H229800   4.251   1.732   2.805 -0.5706 -0.6772  0.1846
 4410TIP3   OH229801   2.771   0.856   1.748  0.4646 -0.0007 -0.3940
 4410TIP3    H129802   2.747   0.858   1.655  0.8734 -0.8025 -0.5280
 4410TIP3    H229803   2.706   0.912   1.791 -0.1255 -0.1508 -1.0693
 4411TIP3   OH229804   1.205   3.339   8.636 -0.0025 -0.3038 -0.0912
 4411TIP3    H129805   1.277   3.394   8.606 -0.4563  0.0424 -0.5738
 4411TIP3    H229806   1.161   3.312   8.555 -1.6277  1.1377  0.2562
 4412TIP3   OH229807   5.877   2.985   2.678 -0.4711  0.9511 -0.6290
 4412TIP3    H129808   5.916   3.050   2.736 -1.4729  0.9253  0.0988
 4412TIP3    H229809   5.946   2.920   2.665  0.2493  1.7074 -0.6621
 4413TIP3   OH229810   5.742   1.140   2.086 -0.1281  0.4778  0.0467
 4413TIP3    H129811   5.703   1.055   2.106  2.2267 -0.4823  0.9215
 4413TIP3    H229812   5.668   1.194   2.056 -2.0446 -1.2296  1.4200
 4414TIP3   OH229813   5.858   2.800   0.024 -0.4813  0.4047  0.3171
 4414TIP3    H129814   5.845   2.717  -0.022 -1.3877  0.3044  0.7346
 4414TIP3    H229815   5.770   2.835   0.036 -0.0842  1.6840 -0.2982
 4415TIP3   OH229816   5.460   1.940   8.138 -0.1796  0.3308 -0.4491
 4415TIP3    H129817   5.450   2.032   8.160  1.8877  0.2414  1.2408
 4415TIP3    H229818   5.523   1.939   8.066  0.1833  0.2292 -0.1330
 4416TIP3   OH229819   4.164   0.988   2.817  0.2842  0.1119  0.4078
 4416TIP3    H129820   4.234   0.931   2.851  0.7930  0.3899 -0.1595
 4416TIP3    H229821   4.097   0.927   2.786  0.3669 -0.1629  0.7573
 4417TIP3   OH229822   5.994   5.272   0.977 -0.2168 -0.1329 -0.6679
 4417TIP3    H129823   6.001   5.313   0.891  0.2291  1.0960 -0.0767
 4417TIP3    H229824   6.057   5.199   0.974 -0.3356 -0.2126 -1.4294
 4418TIP3   OH229825   0.832   4.527   1.756  0.5583  0.6220 -0.3820
 4418TIP3    H129826   0.926   4.514   1.747  0.4839  0.4075 -0.8956
 4418TIP3    H229827   0.796   4.439   1.768  0.2635  0.5252 -1.7970
 4419TIP3   OH229828   0.864   1.175   6.890  0.0375 -0.2214  0.1457
 4419TIP3    H129829   0.818   1.219   6.961  0.2154 -0.0412  0.1508
 4419TIP3    H229830   0.835   1.220   6.811  0.5807  0.2197  0.1941
 4420TIP3   OH229831   5.258   3.341   6.993 -0.6589 -0.2401 -0.4289
 4420TIP3    H129832   5.169   3.306   6.990 -1.6407  2.0863 -2.8764
 4420TIP3    H229833   5.272   3.376   6.905  1.6456  1.8594  0.6582
 4421TIP3   OH229834   4.674   5.986   0.546  0.1981 -0.1824  0.0158
 4421TIP3    H129835   4.611   5.933   0.595 -0.8853  0.4813 -0.6212
 4421TIP3    H229836   4.631   6.003   0.462  0.4921  1.7017  0.1987
 4422TIP3   OH229837   2.569   0.241   8.576  0.3583  0.4946  0.1633
 4422TIP3    H129838   2.658   0.241   8.541  0.1190 -0.8301 -0.5249
 4422TIP3    H229839   2.533   0.326   8.551  1.4896  1.1173  0.6265
 4423TIP3   OH229840   2.887   6.439   7.525  0.1470 -0.7864  0.3181
 4423TIP3    H129841   2.857   6.348   7.533 -2.7925  0.0206 -0.5494
 4423TIP3    H229842   2.914   6.447   7.434  1.6498 -1.0565  0.7001
 4424TIP3   OH229843   3.407   3.726   2.204  0.2809 -0.0938 -0.4868
 4424TIP3    H129844   3.486   3.706   2.254  0.8423 -0.0982 -1.3464
 4424TIP3    H229845   3.337   3.678   2.248  0.3912  1.3157  1.3703
 4425TIP3   OH229846   0.271   4.757   6.271 -0.3005 -0.4633 -0.0926
 4425TIP3    H129847   0.354   4.792   6.303 -0.4869  0.7049 -0.8282
 4425TIP3    H229848   0.235   4.826   6.215 -1.7902 -0.9227  0.2310
 4426TIP3   OH229849   0.460   3.075   1.751 -0.2669 -0.2965  0.2776
 4426TIP3    H129850   0.372   3.054   1.721 -0.0189 -1.3391  0.2302
 4426TIP3    H229851   0.485   3.152   1.700 -1.2599  0.1888  0.5095
 4427TIP3   OH229852   1.460   3.859   8.933 -0.3319 -0.1846 -0.2083
 4427TIP3    H129853   1.390   3.873   8.869 -0.1002  1.0145 -0.2205
 4427TIP3    H229854   1.415   3.857   9.018 -0.3712  0.8069 -0.1964
 4428TIP3   OH229855   5.246   3.386   3.269  0.3220  0.3463 -0.2126
 4428TIP3    H129856   5.301   3.307   3.274  0.6968  0.6573  0.9699
 4428TIP3    H229857   5.189   3.380   3.345 -1.2216  0.1086 -1.3370
 4429TIP3   OH229858   4.066   2.795   8.758  0.0518  0.3102  0.3785
 4429TIP3    H129859   4.059   2.883   8.719 -1.0133 -0.1569 -0.5308
 4429TIP3    H229860   4.034   2.736   8.690  3.7310 -1.1738 -0.3319
 4430TIP3   OH229861   5.143   1.332   2.380  0.6841  0.2098  0.2124
 4430TIP3    H129862   5.180   1.413   2.343  0.0562  0.1315 -0.6314
 4430TIP3    H229863   5.218   1.275   2.391  0.9671  0.4394 -0.4511
 4431TIP3   OH229864   3.857   1.732   1.078  0.6170 -0.1096 -0.0634
 4431TIP3    H129865   3.819   1.812   1.043 -2.1993 -1.3174 -0.1096
 4431TIP3    H229866   3.836   1.734   1.171  2.1539  0.0274  0.2929
 4432TIP3   OH229867   0.698   5.884   8.116  0.3167  0.0489  0.1228
 4432TIP3    H129868   0.637   5.940   8.067 -1.7318 -1.1098  1.2010
 4432TIP3    H229869   0.753   5.845   8.048 -0.6963  0.4980 -1.0125
 4433TIP3   OH229870   1.676   3.368   0.477  0.2384  0.2958  0.5692
 4433TIP3    H129871   1.597   3.402   0.435  1.1972  2.4701  0.4185
 4433TIP3    H229872   1.727   3.332   0.405  0.1499  0.4416  0.4330
 4434TIP3   OH229873   1.512   0.865   1.753  0.2186 -1.0990  0.0647
 4434TIP3    H129874   1.450   0.918   1.702  0.6823 -1.9854 -1.5166
 4434TIP3    H229875   1.457   0.799   1.795 -0.1105 -0.7596  0.1741
 4435TIP3   OH229876   1.042   2.296   9.255 -0.3016  0.7536 -0.4280
 4435TIP3    H129877   1.128   2.254   9.261 -1.8930 -2.6743  1.3291
 4435TIP3    H229878   1.014   2.282   9.165  0.2656  0.3072 -0.5389
 4436TIP3   OH229879   3.593   4.791   2.665 -0.0458  0.5053 -0.2129
 4436TIP3    H129880   3.604   4.733   2.741  0.2384  1.7307  0.7180
 4436TIP3    H229881   3.580   4.877   2.703  0.4783  1.2161 -1.5854
 4437TIP3   OH229882   3.280   4.104   0.880  0.1636 -0.1532 -0.4810
 4437TIP3    H129883   3.231   4.162   0.821  0.1047 -0.7161 -0.9891
 4437TIP3    H229884   3.288   4.022   0.832 -3.1529 -1.9802  1.6746
 4438TIP3   OH229885   4.230   0.570   0.259 -0.3989 -0.1586 -0.4799
 4438TIP3    H129886   4.270   0.529   0.335  1.3307  0.2176 -1.1336
 4438TIP3    H229887   4.286   0.544   0.186 -0.8170  1.1484 -1.2981
 4439TIP3   OH229888   0.964   2.592   2.342  0.0678  0.1108 -0.0101
 4439TIP3    H129889   1.035   2.618   2.401 -0.7466  1.9714  0.2230
 4439TIP3    H229890   1.007   2.577   2.258  1.1585 -2.0163  0.8316
 4440TIP3   OH229891   1.929   4.137   7.745  0.1853  0.1242  0.0881
 4440TIP3    H129892   2.014   4.127   7.703 -0.0283  0.7890 -0.5210
 4440TIP3    H229893   1.865   4.130   7.674 -0.1850  1.1082  0.3013
 4441TIP3   OH229894   2.260   6.212   1.082 -0.6303 -0.1086 -0.0070
 4441TIP3    H129895   2.192   6.159   1.040 -1.5269  1.4966 -0.6690
 4441TIP3    H229896   2.220   6.242   1.163 -2.0388  3.3352 -1.7392
 4442TIP3   OH229897   3.942   3.842   2.162 -0.4191  0.0054 -0.1962
 4442TIP3    H129898   3.880   3.857   2.092 -0.8241  1.1046  0.3754
 4442TIP3    H229899   3.894   3.790   2.227 -0.5213  0.2642 -0.0645
 4443TIP3   OH229900   1.266   6.143   2.790  0.3813  0.3147 -0.4022
 4443TIP3    H129901   1.236   6.135   2.700 -2.0163  2.1622  0.1197
 4443TIP3    H229902   1.308   6.230   2.793  2.3176 -0.5804 -0.1587
 4444TIP3   OH229903   1.402   1.343   8.588  0.3092  0.5028 -0.4500
 4444TIP3    H129904   1.328   1.286   8.605  0.7848 -0.9043 -2.6720
 4444TIP3    H229905   1.390   1.372   8.497  2.5376  0.0409 -0.9661
 4445TIP3   OH229906   5.996   0.021   9.008  0.1156 -0.2416 -0.3667
 4445TIP3    H129907   6.073   0.078   9.005  0.0501 -0.1720 -0.7784
 4445TIP3    H229908   5.922   0.082   9.009  0.0068 -0.0602  4.1207
 4446TIP3   OH229909   2.784   4.331   0.757  0.0971 -0.0693  0.2299
 4446TIP3    H129910   2.717   4.274   0.794  1.2515 -2.1842 -0.7924
 4446TIP3    H229911   2.798   4.398   0.825 -3.3014  0.7598  0.2732
 4447TIP3   OH229912   3.984   2.571   0.276 -0.0722 -0.0483 -0.5130
 4447TIP3    H129913   3.976   2.508   0.347  1.4786  0.1496 -0.1316
 4447TIP3    H229914   4.076   2.598   0.278  0.0931 -0.2647 -2.7834
 4448TIP3   OH229915   5.170   0.929   8.413  0.2729  0.3006 -0.3959
 4448TIP3    H129916   5.174   0.940   8.508 -0.2122 -0.6409 -0.2580
 4448TIP3    H229917   5.258   0.900   8.389  0.1618 -0.2940 -0.1116
 4449TIP3   OH229918   3.358   5.571   0.990  0.3137 -0.2210 -0.1336
 4449TIP3    H129919   3.315   5.516   0.924  0.0879 -2.2230  1.5773
 4449TIP3    H229920   3.384   5.510   1.058  2.0462  1.5569  0.8831
 4450TIP3   OH229921   1.473   5.787   6.538  0.2521 -0.3979 -0.6210
 4450TIP3    H129922   1.470   5.791   6.634  0.8337 -1.5727 -0.5322
 4450TIP3    H229923   1.516   5.868   6.513  0.6033 -0.3237  0.1652
 4451TIP3   OH229924   5.876   0.564   2.373  0.0915  0.6627 -0.7852
 4451TIP3    H129925   5.824   0.565   2.453  2.1207  0.8025  0.6254
 4451TIP3    H229926   5.930   0.643   2.379  0.7790  0.3119 -1.9548
 4452TIP3   OH229927   5.023   1.181   1.548  0.4590 -0.0334 -0.6161
 4452TIP3    H129928   4.978   1.250   1.596  0.2204  0.2765 -1.2701
 4452TIP3    H229929   4.969   1.166   1.471 -0.2894 -2.0016  0.2384
 4453TIP3   OH229930   1.604   2.651   2.859  0.0375  0.3046 -0.0909
 4453TIP3    H129931   1.627   2.742   2.878  1.9076  0.1067 -1.1130
 4453TIP3    H229932   1.534   2.630   2.920  0.3420  2.0833  0.9292
 4454TIP3   OH229933   2.777   2.634   0.971 -0.2703 -0.1358 -0.1539
 4454TIP3    H129934   2.714   2.563   0.985  0.2852 -0.6452 -0.2320
 4454TIP3    H229935   2.854   2.608   1.021 -0.0217  0.3642 -0.2692
 4455TIP3   OH229936   4.765   2.088   1.776 -0.4791  0.2247 -0.1827
 4455TIP3    H129937   4.803   2.167   1.739 -0.4549 -0.4607 -1.6846
 4455TIP3    H229938   4.672   2.110   1.789 -0.2266  0.8905  0.6151
 4456TIP3   OH229939   2.044   4.387   7.858  0.0130 -0.2209 -0.3404
 4456TIP3    H129940   2.122   4.404   7.806  0.4332  1.5848  0.8100
 4456TIP3    H229941   2.005   4.309   7.817  2.7385 -1.6284 -0.5152
 4457TIP3   OH229942   1.627   5.151   3.348 -0.4975 -0.0482  0.2874
 4457TIP3    H129943   1.700   5.090   3.334 -1.1259 -0.5482 -0.8777
 4457TIP3    H229944   1.555   5.096   3.379 -0.5963  0.3524  0.8012
 4458TIP3   OH229945   5.250   3.553   0.436  0.1219 -0.7310  0.0704
 4458TIP3    H129946   5.278   3.464   0.455  1.1219 -0.1067  1.7608
 4458TIP3    H229947   5.194   3.545   0.360  0.3127 -2.7802  0.0966
 4459TIP3   OH229948   2.679   3.158   2.813 -0.4487 -0.0162  0.2011
 4459TIP3    H129949   2.724   3.129   2.892  1.6725  2.1334 -0.1295
 4459TIP3    H229950   2.647   3.245   2.834 -0.9240  0.0988 -0.9288
 4460TIP3   OH229951   0.056   1.325   1.469 -0.0949  0.2676  0.0314
 4460TIP3    H129952   0.033   1.233   1.459  3.1563 -0.7487  0.7241
 4460TIP3    H229953   0.071   1.356   1.379 -0.3616 -0.1396 -0.1543
 4461TIP3   OH229954   4.444   2.203   1.247  0.3159 -0.0520  0.3120
 4461TIP3    H129955   4.373   2.142   1.230  1.3362 -1.1397 -0.2058
 4461TIP3    H229956   4.419   2.246   1.329 -1.7304  0.8594 -0.7140
 4462TIP3   OH229957   1.657   2.853   8.621  0.2621 -0.5331  0.1442
 4462TIP3    H129958   1.651   2.943   8.654  0.0812  0.2658 -1.9170
 4462TIP3    H229959   1.730   2.855   8.558  0.4508 -1.9122  0.2851
 4463TIP3   OH229960   0.144   5.879   1.800 -0.4238 -0.1675 -0.0536
 4463TIP3    H129961   0.184   5.868   1.886 -0.6068  0.9611  0.1949
 4463TIP3    H229962   0.211   5.851   1.738 -0.3292 -1.0922  0.4461
 4464TIP3   OH229963   2.148   3.398   6.479 -0.5272  0.5156 -0.6075
 4464TIP3    H129964   2.106   3.319   6.511 -1.9696  1.5528  0.1497
 4464TIP3    H229965   2.127   3.465   6.544  3.2162  0.9078  0.4383
 4465TIP3   OH229966   2.339   0.429   0.772  0.4225  0.0010  0.1216
 4465TIP3    H129967   2.413   0.431   0.833  0.3269  1.7183  0.2376
 4465TIP3    H229968   2.375   0.389   0.692  0.4004 -2.8099  1.3912
 4466TIP3   OH229969   2.676   1.759   0.624 -0.4903 -0.0205  0.1294
 4466TIP3    H129970   2.760   1.724   0.592 -0.8464 -0.7677 -0.0094
 4466TIP3    H229971   2.659   1.710   0.704 -0.1978  1.0044  0.8306
 4467TIP3   OH229972   3.910   0.884   8.683 -0.5660 -0.1982  0.2283
 4467TIP3    H129973   3.999   0.856   8.664 -0.9725 -1.4071  0.0231
 4467TIP3    H229974   3.870   0.895   8.596 -0.5407  0.6363  0.3131
 4468TIP3   OH229975   4.455   5.309   8.459  0.2222 -0.5105 -0.3943
 4468TIP3    H129976   4.461   5.217   8.436  0.2448 -0.0695 -2.3361
 4468TIP3    H229977   4.381   5.342   8.407  1.2740  0.9100 -1.0721
 4469TIP3   OH229978   4.309   1.395   2.966 -0.2943  0.0399 -0.1524
 4469TIP3    H129979   4.401   1.417   2.984 -0.6713  0.8819  0.8842
 4469TIP3    H229980   4.271   1.477   2.934 -1.1093  0.2483  1.2427
 4470TIP3   OH229981   2.310   6.275   7.828 -0.3814 -0.1243 -0.1253
 4470TIP3    H129982   2.394   6.252   7.867 -0.7024  1.3365  1.5790
 4470TIP3    H229983   2.247   6.219   7.873 -0.3973 -0.9478 -1.1318
 4471TIP3   OH229984   3.751   5.193   8.063 -0.4225  0.0062 -0.4303
 4471TIP3    H129985   3.709   5.140   7.996 -1.0918  0.0531 -0.0586
 4471TIP3    H229986   3.843   5.166   8.062 -0.6745 -0.8741 -0.5137
 4472TIP3   OH229987   5.662   6.248   1.127  0.9767 -0.5482 -0.3242
 4472TIP3    H129988   5.720   6.265   1.202  1.2076 -2.4640  0.0007
 4472TIP3    H229989   5.716   6.196   1.067  0.1226 -0.8802 -0.8169
 4473TIP3   OH229990   5.818   5.339   8.144  0.2559 -0.1422  0.2296
 4473TIP3    H129991   5.846   5.394   8.218  1.1693 -0.0531 -0.1653
 4473TIP3    H229992   5.746   5.287   8.179 -0.2359  0.8735  0.7906
 4474TIP3   OH229993   5.317   4.336   2.593 -0.0140 -0.0777 -0.2532
 4474TIP3    H129994   5.382   4.405   2.604  1.4566 -1.3196 -0.8093
 4474TIP3    H229995   5.366   4.254   2.605 -0.9006 -1.1546 -3.2144
 4475TIP3   OH229996   1.604   1.371   0.407 -0.1016  0.4420  0.9823
 4475TIP3    H129997   1.622   1.278   0.413 -1.3973  0.2585  2.9160
 4475TIP3    H229998   1.664   1.412   0.469  0.4418  0.9034  0.1681
 4476TIP3   OH229999   6.015   1.841   8.574  0.4728 -0.5666  0.3276
 4476TIP3    H130000   6.018   1.931   8.608  0.7512 -0.2650 -0.4587
 4476TIP3    H230001   5.996   1.852   8.481 -0.3179 -1.3717  0.3806
 4477TIP3   OH230002   5.833   6.352   1.330 -0.3805  0.4382  0.1637
 4477TIP3    H130003   5.884   6.425   1.293 -2.2623  0.8116 -1.9068
 4477TIP3    H230004   5.798   6.387   1.412  2.1126  0.3548  1.3726
 4478TIP3   OH230005   0.088   0.426   0.032 -0.3455  0.5452  0.4310
 4478TIP3    H130006   0.159   0.488   0.017  1.5144 -1.4103  0.6403
 4478TIP3    H230007   0.110   0.385   0.115 -1.3136 -0.6148  0.1336
 4479TIP3   OH230008   4.451   1.452   0.069 -0.7454  0.4045 -0.1963
 4479TIP3    H130009   4.424   1.424  -0.019 -0.2862  0.8105 -0.4766
 4479TIP3    H230010   4.457   1.548   0.062 -0.5551  0.4264  0.2366
 4480TIP3   OH230011   0.489   6.077   7.085 -0.6215 -0.1228  0.0535
 4480TIP3    H130012   0.530   6.110   7.166 -0.2005 -0.5447  0.0164
 4480TIP3    H230013   0.552   6.097   7.016 -1.5264  1.3702 -0.3787
 4481TIP3   OH230014   1.262   0.645   8.083 -0.3234  0.7252 -0.1031
 4481TIP3    H130015   1.340   0.595   8.061 -0.9114 -0.0962 -0.3926
 4481TIP3    H230016   1.244   0.623   8.175 -1.0390 -0.2745 -0.4551
 4482TIP3   OH230017   5.046   0.031   7.591 -0.2344 -0.1867 -0.1663
 4482TIP3    H130018   5.118   0.048   7.652  0.0271  0.0901 -0.5486
 4482TIP3    H230019   5.025  -0.062   7.604 -0.0568 -0.1779  0.2077
 4483TIP3   OH230020   5.370   3.030   1.927  0.4263 -0.0962  0.0629
 4483TIP3    H130021   5.421   2.963   1.881  1.2507  0.5481  0.0194
 4483TIP3    H230022   5.393   3.112   1.884  0.2852  0.3637  0.8432
 4484TIP3   OH230023   3.735   2.639   6.636  0.6935  0.2104 -0.0270
 4484TIP3    H130024   3.702   2.552   6.660  1.4995 -0.3312 -0.7896
 4484TIP3    H230025   3.694   2.699   6.698  1.5821 -0.9480  1.7648
 4485TIP3   OH230026   1.085   4.984   8.891  0.1832  0.2094 -0.6311
 4485TIP3    H130027   1.117   4.922   8.826 -0.0893 -0.5428 -0.0572
 4485TIP3    H230028   1.164   5.011   8.939  0.0954 -1.0736  0.2896
 4486TIP3   OH230029   1.889   4.410   0.747 -1.1283  0.5112 -0.0083
 4486TIP3    H130030   1.956   4.445   0.689 -0.2075 -0.3085  0.5344
 4486TIP3    H230031   1.912   4.443   0.833 -0.3717 -1.1509  0.4818
 4487TIP3   OH230032   5.063   1.755   2.001 -0.0937  0.6870  0.2453
 4487TIP3    H130033   5.042   1.797   1.918  1.8590  0.9302 -0.1668
 4487TIP3    H230034   5.099   1.669   1.977 -1.8763 -0.3132  0.9792
 4488TIP3   OH230035   0.612   4.240   7.115 -0.7269  0.2495 -0.2559
 4488TIP3    H130036   0.683   4.303   7.110 -0.3314  0.0092  1.6793
 4488TIP3    H230037   0.565   4.249   7.031  1.2758  0.7343 -1.3749
 4489TIP3   OH230038   3.935   0.392   2.546 -0.6050  0.2213  0.1873
 4489TIP3    H130039   3.954   0.450   2.619 -0.0108  0.5797 -0.2514
 4489TIP3    H230040   3.959   0.441   2.468 -0.9514 -0.2706 -0.2419
 4490TIP3   OH230041   5.430   1.263   8.723  0.9700  0.2489  0.3906
 4490TIP3    H130042   5.471   1.196   8.668  1.9183  0.6942  0.5307
 4490TIP3    H230043   5.344   1.228   8.744  1.3442 -0.8022  0.2334
 4491TIP3   OH230044   5.876   2.143   1.528  0.0567  0.5005  0.2048
 4491TIP3    H130045   5.800   2.099   1.565  0.6870  0.2945  1.3124
 4491TIP3    H230046   5.917   2.076   1.472  0.4011  0.0099  1.0169
 4492TIP3   OH230047   3.782   3.244   1.693 -0.0818  0.1442 -0.1045
 4492TIP3    H130048   3.807   3.336   1.687  1.3465 -0.2824 -1.4082
 4492TIP3    H230049   3.795   3.222   1.785  1.5603  0.7509 -0.1618
 4493TIP3   OH230050   0.845   0.882   8.824 -0.0161  0.3661 -0.4554
 4493TIP3    H130051   0.769   0.845   8.777 -0.0972 -1.7221  1.1663
 4493TIP3    H230052   0.814   0.893   8.914  1.4134  0.0800  0.0898
 4494TIP3   OH230053   4.117   1.082   1.631 -0.0989 -0.0994  0.4052
 4494TIP3    H130054   4.112   0.988   1.610 -1.5534 -1.1562  4.4316
 4494TIP3    H230055   4.025   1.111   1.633  0.2953  1.2353 -0.0451
 4495TIP3   OH230056   5.504   5.909   0.466 -0.4537 -0.2384 -0.0157
 4495TIP3    H130057   5.506   5.961   0.385  1.6948 -2.1860 -1.3463
 4495TIP3    H230058   5.411   5.888   0.478 -1.0358  1.6264 -0.9355
 4496TIP3   OH230059   2.670   0.606   8.177  0.0382  0.6483 -0.0366
 4496TIP3    H130060   2.639   0.525   8.137 -0.4500  0.5944  0.4361
 4496TIP3    H230061   2.761   0.588   8.200 -0.2612 -0.0228  0.7006
 4497TIP3   OH230062   1.303   2.123   0.832  0.1679  0.0996 -0.1367
 4497TIP3    H130063   1.380   2.081   0.871 -1.1794 -3.5029 -0.9616
 4497TIP3    H230064   1.266   2.174   0.903  2.6312  1.0220  0.6089
 4498TIP3   OH230065   1.759   3.421   2.594 -0.1249 -0.1577  0.7368
 4498TIP3    H130066   1.843   3.465   2.607 -0.1178  0.1884 -0.4172
 4498TIP3    H230067   1.773   3.333   2.630  0.5623  0.0666  1.0360
 4499TIP3   OH230068   4.257   2.421   7.757 -0.1160  0.6366 -0.3105
 4499TIP3    H130069   4.271   2.480   7.831 -0.0524 -0.4660  0.5798
 4499TIP3    H230070   4.342   2.378   7.744 -0.2792  0.4155 -0.6771
 4500TIP3   OH230071   2.677   5.735   2.152  0.6793  0.4296  0.0340
 4500TIP3    H130072   2.754   5.791   2.153  1.3038 -0.3661 -1.1215
 4500TIP3    H230073   2.706   5.654   2.110 -0.4885 -0.3381  0.6436
 4501TIP3   OH230074   5.458   3.593   1.337  0.5435  0.2456 -0.3754
 4501TIP3    H130075   5.378   3.603   1.389  0.1140  1.4916 -1.2233
 4501TIP3    H230076   5.428   3.591   1.247  1.4057 -0.2522 -0.6627
 4502TIP3   OH230077   3.259   5.600   1.345  0.2294  0.0320  0.0585
 4502TIP3    H130078   3.261   5.569   1.435 -1.2048 -1.0147 -0.2405
 4502TIP3    H230079   3.351   5.618   1.323  0.6883 -0.5916  1.4061
 4503TIP3   OH230080   6.060   0.389   1.584 -0.3923  0.0575  0.0334
 4503TIP3    H130081   6.072   0.316   1.645 -1.1403 -0.5316 -0.5080
 4503TIP3    H230082   6.136   0.445   1.599  0.6521 -1.2650 -0.1303
 4504TIP3   OH230083   2.733   4.405   2.139  0.6416 -0.1725 -0.3419
 4504TIP3    H130084   2.794   4.429   2.210  1.6663  1.7522 -1.7673
 4504TIP3    H230085   2.790   4.375   2.068 -0.2903 -0.9332 -0.7896
 4505TIP3   OH230086   4.223   6.380   8.178  0.1766  0.3491 -0.1372
 4505TIP3    H130087   4.276   6.426   8.113 -1.0723  0.7253 -0.9327
 4505TIP3    H230088   4.136   6.419   8.170 -1.0556 -2.3629 -1.1539
 4506TIP3   OH230089   6.162   1.151   1.677  0.3821  0.4048  0.4823
 4506TIP3    H130090   6.227   1.189   1.737  0.3927  0.3729  0.4913
 4506TIP3    H230091   6.137   1.223   1.620  1.9369 -0.0317 -0.8514
 4507TIP3   OH230092   1.739   3.469   7.350  0.1004 -0.4356  0.0977
 4507TIP3    H130093   1.760   3.390   7.300 -0.5997 -0.3241 -0.3834
 4507TIP3    H230094   1.730   3.439   7.440 -0.9351 -1.0467 -0.1998
 4508TIP3   OH230095   6.438   0.179   8.132  0.1713  0.3278 -0.1109
 4508TIP3    H130096   6.463   0.157   8.042  0.9768  0.3333  0.1047
 4508TIP3    H230097   6.354   0.136   8.145  1.4490 -2.3048  0.1420
 4509TIP3   OH230098   3.385   1.056   8.315  1.1297  0.5835 -0.0919
 4509TIP3    H130099   3.467   1.038   8.361  0.7759 -0.1982  0.2495
 4509TIP3    H230100   3.321   1.000   8.358  0.9272 -0.7567 -2.0006
 4510TIP3   OH230101   4.862   2.420   0.623  0.0323  0.7912  0.3681
 4510TIP3    H130102   4.819   2.495   0.662  0.0050  1.1858 -0.3990
 4510TIP3    H230103   4.942   2.455   0.584  0.0729  0.4090  0.0943
 4511TIP3   OH230104   3.436   6.366   0.283 -0.1375 -0.2242  0.1726
 4511TIP3    H130105   3.502   6.296   0.279  0.8204  0.4785  2.3310
 4511TIP3    H230106   3.360   6.324   0.324 -0.0065 -0.3166  0.3250
 4512TIP3   OH230107   4.000   5.660   8.199  0.0569 -0.2857  0.3137
 4512TIP3    H130108   4.051   5.597   8.249  0.0896 -0.8769 -0.4418
 4512TIP3    H230109   3.916   5.616   8.185  0.5693 -0.7673 -1.4296
 4513TIP3   OH230110   2.773   3.602   0.934  0.5879 -0.0251 -0.3181
 4513TIP3    H130111   2.766   3.621   1.028  2.2709 -0.9240  0.0408
 4513TIP3    H230112   2.820   3.519   0.930 -0.4444 -0.5683 -1.9628
 4514TIP3   OH230113   2.388   5.087   0.109  0.2025 -0.0522  0.7566
 4514TIP3    H130114   2.456   5.092   0.042  1.5566  0.8223  2.1458
 4514TIP3    H230115   2.348   5.000   0.097  0.4051  0.0823 -1.1425
 4515TIP3   OH230116   4.042   1.392   1.104 -0.3061  0.1848 -0.0285
 4515TIP3    H130117   3.948   1.379   1.116 -0.3929  0.7889 -0.0400
 4515TIP3    H230118   4.079   1.383   1.192 -0.3794  0.0232 -0.0128
 4516TIP3   OH230119   4.373   2.315   7.451 -0.5951  0.5310  0.3202
 4516TIP3    H130120   4.428   2.316   7.529  0.3883  0.5213 -0.3461
 4516TIP3    H230121   4.292   2.358   7.478 -0.7188 -0.4910  1.6400
 4517TIP3   OH230122   1.551   2.039   0.107  0.8476 -0.0911 -0.4827
 4517TIP3    H130123   1.520   2.122   0.143  1.4363 -0.2760  0.4800
 4517TIP3    H230124   1.476   2.006   0.056  0.1743  0.4292  0.1406
 4518TIP3   OH230125   2.252   2.151   6.428 -0.6439  0.2642 -0.1058
 4518TIP3    H130126   2.242   2.086   6.498 -1.2776  1.6588  1.1513
 4518TIP3    H230127   2.304   2.221   6.467  0.3840  0.3594 -1.5683
 4519TIP3   OH230128   5.373   1.202   2.465 -0.2064 -0.3715  0.1240
 4519TIP3    H130129   5.427   1.131   2.501 -1.7084 -1.5979  0.0676
 4519TIP3    H230130   5.345   1.252   2.541 -0.1010 -0.5521  0.2836
 4520TIP3   OH230131   2.623   5.456   1.437 -0.2864 -0.3600  0.4573
 4520TIP3    H130132   2.546   5.418   1.395  0.3702 -1.0118 -0.1824
 4520TIP3    H230133   2.634   5.406   1.518 -1.1365  0.4319  1.0886
 4521TIP3   OH230134   6.168   0.798   8.026  0.3333  0.2852 -0.1539
 4521TIP3    H130135   6.156   0.832   7.938 -0.9672 -3.5740 -1.6980
 4521TIP3    H230136   6.079   0.787   8.061  0.6011 -1.7008  0.0433
 4522TIP3   OH230137   0.227   2.286   0.619 -0.7010  0.1938  0.3469
 4522TIP3    H130138   0.133   2.303   0.615 -0.9497 -1.1924 -2.3761
 4522TIP3    H230139   0.237   2.220   0.688 -1.9030 -0.4351 -0.0497
 4523TIP3   OH230140   2.573   0.038   6.917  0.4705  0.2624  0.4779
 4523TIP3    H130141   2.665   0.014   6.927 -0.0989 -1.7491  1.4761
 4523TIP3    H230142   2.548  -0.001   6.834  0.5334  0.8690  0.1739
 4524TIP3   OH230143   4.555   5.865   1.837 -0.2990  0.0190  0.6527
 4524TIP3    H130144   4.618   5.927   1.874 -0.6341  0.1281  1.0444
 4524TIP3    H230145   4.594   5.839   1.754  0.4517 -0.2073  1.0666
 4525TIP3   OH230146   4.952   4.600   0.684  0.3840  0.0544 -0.6453
 4525TIP3    H130147   5.039   4.619   0.720  0.2681  0.1110 -0.3870
 4525TIP3    H230148   4.923   4.682   0.645 -0.3762  0.6256  1.0163
 4526TIP3   OH230149   2.186   2.960   6.431 -0.0720  0.0302 -0.3713
 4526TIP3    H130150   2.123   2.913   6.377  1.1881 -1.9204 -0.2448
 4526TIP3    H230151   2.267   2.909   6.424  0.5281  0.4492  2.2740
 4527TIP3   OH230152   5.034   4.363   2.587 -0.3530 -0.3903 -0.1597
 4527TIP3    H130153   5.035   4.370   2.683 -1.9231  0.5620 -0.1758
 4527TIP3    H230154   5.123   4.340   2.564  0.6470  1.5596  1.4063
 4528TIP3   OH230155   3.233   3.621   7.214 -0.5753 -0.2552  0.1083
 4528TIP3    H130156   3.206   3.666   7.294  1.0197  0.6642  0.1738
 4528TIP3    H230157   3.209   3.682   7.143 -0.4419 -0.2967  0.0263
 4529TIP3   OH230158   4.122   3.559   6.777 -0.5558 -0.2678  0.3253
 4529TIP3    H130159   4.053   3.597   6.722  0.6999  0.7998 -0.6057
 4529TIP3    H230160   4.144   3.629   6.838  0.6047 -0.0862 -0.2768
 4530TIP3   OH230161   4.823   4.204   0.383 -0.2968  0.3257 -0.2719
 4530TIP3    H130162   4.867   4.271   0.437  0.1217  0.1136 -0.3432
 4530TIP3    H230163   4.764   4.160   0.444 -0.0612  0.3022 -0.0540
 4531TIP3   OH230164   4.356   0.188   9.043 -0.1965  0.1308 -0.1676
 4531TIP3    H130165   4.411   0.180   8.965  1.3780 -2.4991  1.0986
 4531TIP3    H230166   4.285   0.125   9.029 -0.5274  0.4419  0.0863
 4532TIP3   OH230167   5.077   0.584   7.127 -0.0114  0.4715 -0.4001
 4532TIP3    H130168   5.141   0.528   7.083  0.9632 -0.2694  1.8076
 4532TIP3    H230169   5.074   0.551   7.217 -1.1464  2.5158  0.3800
 4533TIP3   OH230170   4.592   2.182   8.945 -0.0320 -0.6115 -0.4578
 4533TIP3    H130171   4.673   2.227   8.967 -1.1702  2.2098 -1.5836
 4533TIP3    H230172   4.593   2.175   8.850  0.0160 -2.9257 -0.3318
 4534TIP3   OH230173   2.006   3.226   7.839  0.2659  0.0175 -0.2559
 4534TIP3    H130174   2.082   3.285   7.840 -1.1537  1.9604 -1.4776
 4534TIP3    H230175   2.006   3.189   7.751  0.2979 -0.7209  0.0436
 4535TIP3   OH230176   5.742   4.046   7.468  0.2889  0.3075  0.1696
 4535TIP3    H130177   5.658   4.089   7.483  0.6368  0.9152  0.4167
 4535TIP3    H230178   5.766   4.012   7.554 -0.4703 -1.3153 -0.2181
 4536TIP3   OH230179   1.512   3.836   6.790  0.6842  0.0818 -0.0061
 4536TIP3    H130180   1.423   3.817   6.761  0.7662  1.4236 -1.2925
 4536TIP3    H230181   1.565   3.767   6.751  0.1448 -1.2656  1.5290
 4537TIP3   OH230182   3.871   2.727   7.065 -0.2190 -1.0571  0.7443
 4537TIP3    H130183   3.853   2.767   6.980 -0.9020 -0.1489  1.2883
 4537TIP3    H230184   3.822   2.645   7.064  0.0182 -1.1925  0.1528
 4538TIP3   OH230185   3.833   0.910   1.685  0.0738 -0.1933  0.4834
 4538TIP3    H130186   3.881   0.908   1.602  0.3558  1.1321  0.5931
 4538TIP3    H230187   3.891   0.865   1.746 -1.0088 -2.9976 -0.4262
 4539TIP3   OH230188   5.191   0.031   9.145  0.1468  0.6743 -0.0831
 4539TIP3    H130189   5.138   0.110   9.141  0.3649  0.7803 -1.0838
 4539TIP3    H230190   5.274   0.055   9.104  1.0204  0.5300  1.5147
 4540TIP3   OH230191   2.386   4.423   0.209  0.4087  0.5002 -0.2790
 4540TIP3    H130192   2.388   4.337   0.250 -0.2303 -0.1357 -1.5150
 4540TIP3    H230193   2.367   4.484   0.281  3.0002 -0.0824  1.0195
 4541TIP3   OH230194   5.588   2.282   7.663 -0.4337  0.0295  0.0585
 4541TIP3    H130195   5.597   2.341   7.588 -0.0646  0.5778  0.5256
 4541TIP3    H230196   5.611   2.196   7.628  1.1093  0.4947 -0.1627
 4542TIP3   OH230197   1.279   1.210   2.599 -0.7299 -0.4850  0.7517
 4542TIP3    H130198   1.286   1.305   2.595  0.7792 -0.5468 -3.2213
 4542TIP3    H230199   1.185   1.192   2.597 -1.0876  1.0625 -1.8343
 4543TIP3   OH230200   0.404   4.111   6.242 -0.5593 -0.7835 -0.0624
 4543TIP3    H130201   0.410   4.046   6.171 -1.0287 -1.6933  0.6983
 4543TIP3    H230202   0.488   4.104   6.288 -0.9429 -1.5179  0.5553
 4544TIP3   OH230203   6.128   4.217   8.090 -0.3825 -0.4284 -0.2464
 4544TIP3    H130204   6.086   4.239   8.173 -0.2022 -1.7536  0.2168
 4544TIP3    H230205   6.105   4.289   8.032 -0.2661  0.6839  1.0291
 4545TIP3   OH230206   3.467   3.592   7.538 -0.1437 -0.3881 -0.7118
 4545TIP3    H130207   3.537   3.527   7.548 -0.7666 -0.7060  3.0544
 4545TIP3    H230208   3.388   3.539   7.526 -0.3888 -0.3135  0.4287
 4546TIP3   OH230209   4.335   6.450   1.268 -0.0054 -0.0081 -0.3604
 4546TIP3    H130210   4.304   6.392   1.198 -1.7886  0.7289 -0.2445
 4546TIP3    H230211   4.302   6.409   1.349 -0.4964  0.6821 -0.2056
 4547TIP3   OH230212   0.006   3.587   8.343 -0.0847 -0.2186 -0.6795
 4547TIP3    H130213   0.097   3.570   8.367 -0.0830 -1.5521 -1.5289
 4547TIP3    H230214   0.012   3.638   8.262 -0.1150  0.3234 -0.3522
 4548TIP3   OH230215   1.902   5.619   1.956 -0.0945  0.7153  0.0008
 4548TIP3    H130216   1.895   5.710   1.927  0.8730  0.9626  0.5124
 4548TIP3    H230217   1.869   5.568   1.881  2.0936  1.3473 -1.4991
 4549TIP3   OH230218   5.542   4.445   8.095  0.3689  0.5100  0.4370
 4549TIP3    H130219   5.483   4.371   8.112 -0.8204  1.5352  0.9326
 4549TIP3    H230220   5.609   4.438   8.163 -0.1524  0.2881  0.9416
 4550TIP3   OH230221   3.650   0.894   0.448  0.2516 -0.0213 -0.3636
 4550TIP3    H130222   3.702   0.954   0.501 -0.7745 -0.2944  1.0011
 4550TIP3    H230223   3.610   0.835   0.511 -0.2721 -0.9485 -1.5304
 4551TIP3   OH230224   2.133   5.283   9.215  0.9103 -0.1643 -0.3701
 4551TIP3    H130225   2.127   5.347   9.145  0.3094 -0.3287 -0.4765
 4551TIP3    H230226   2.167   5.332   9.290 -0.8574  0.6300 -0.0377
 4552TIP3   OH230227   1.255   4.041   1.634  0.5593  0.6548 -0.3889
 4552TIP3    H130228   1.190   4.049   1.704  0.4059  0.1549 -0.4675
 4552TIP3    H230229   1.210   3.991   1.566  0.4122  1.8887 -1.2225
 4553TIP3   OH230230   3.285   4.288   2.114  0.8025 -0.2587  0.5751
 4553TIP3    H130231   3.301   4.250   2.201 -0.3333 -0.8356  0.5498
 4553TIP3    H230232   3.253   4.215   2.062 -0.9370  0.6001  0.3808
 4554TIP3   OH230233   5.096   1.660   7.341  0.1413 -0.1675  0.2364
 4554TIP3    H130234   5.099   1.574   7.299  1.2973 -0.5639  1.0640
 4554TIP3    H230235   5.167   1.710   7.300  1.3274 -0.5787  1.6818
 4555TIP3   OH230236   6.349   5.036   1.299 -0.3433 -0.1196 -0.5507
 4555TIP3    H130237   6.380   4.978   1.369  0.8144  0.5413 -0.4731
 4555TIP3    H230238   6.421   5.036   1.235 -0.8210  0.3316 -1.0990
 4556TIP3   OH230239   4.194   4.292   7.794  0.7277  0.1746  0.7515
 4556TIP3    H130240   4.138   4.229   7.839  0.8550  0.5914  1.5101
 4556TIP3    H230241   4.243   4.239   7.730  0.2929 -0.3673  0.8572
 4557TIP3   OH230242   2.360   2.393   6.541 -0.1945 -0.2822 -0.4050
 4557TIP3    H130243   2.441   2.412   6.588 -1.5476  0.1709  1.8565
 4557TIP3    H230244   2.334   2.477   6.502 -0.4001 -0.0625  0.2055
 4558TIP3   OH230245   3.971   4.968   8.832  0.3967 -0.2647 -0.1632
 4558TIP3    H130246   4.004   4.934   8.915  1.5870 -1.1899 -0.9775
 4558TIP3    H230247   3.955   4.890   8.779  0.9303  0.3528 -1.2667
 4559TIP3   OH230248   4.520   1.600   1.339 -0.6548 -0.0450  0.0965
 4559TIP3    H130249   4.549   1.514   1.370  0.7956  0.3831 -0.0063
 4559TIP3    H230250   4.493   1.585   1.248 -3.3495 -0.9703  0.9523
 4560TIP3   OH230251   0.663   1.748   0.734  0.1971  0.2418 -0.4685
 4560TIP3    H130252   0.702   1.708   0.812  0.2317  0.5574 -0.3206
 4560TIP3    H230253   0.731   1.744   0.667  0.7683  1.4705  0.0038
 4561TIP3   OH230254   5.164   2.089   7.874 -0.4108 -0.0656  0.3371
 4561TIP3    H130255   5.125   2.024   7.933  0.0097 -0.8255 -0.2086
 4561TIP3    H230256   5.255   2.063   7.866 -0.7144 -0.6723 -1.5605
 4562TIP3   OH230257   1.464   3.311   8.357  0.4339  0.1814  0.1983
 4562TIP3    H130258   1.396   3.314   8.289 -0.8277  1.0524  1.4338
 4562TIP3    H230259   1.485   3.403   8.373 -2.8651  0.5382  4.3077
 4563TIP3   OH230260   3.942   1.055   0.015 -0.7371 -0.2014 -0.5860
 4563TIP3    H130261   3.950   1.105   0.097  0.7390  1.9277 -1.9430
 4563TIP3    H230262   3.863   1.091  -0.026 -1.6727 -1.5086 -0.0112
 4564TIP3   OH230263   1.587   0.831   7.134 -0.0770 -0.1574 -0.3225
 4564TIP3    H130264   1.568   0.905   7.076  0.7474 -0.7342 -1.3706
 4564TIP3    H230265   1.510   0.824   7.190 -0.2138  1.4253 -0.2575
 4565TIP3   OH230266   1.665   2.993   0.614 -0.0821 -0.0332  0.5711
 4565TIP3    H130267   1.613   2.970   0.537  0.3901  0.1019  0.2052
 4565TIP3    H230268   1.699   2.909   0.646 -0.0779 -0.0657  0.4821
 4566TIP3   OH230269   1.281   0.141   1.258  0.2534  0.1268 -0.4600
 4566TIP3    H130270   1.291   0.208   1.189 -2.4058 -1.1597 -2.2789
 4566TIP3    H230271   1.353   0.080   1.241 -0.4499 -0.2708 -2.3187
 4567TIP3   OH230272   3.634   5.819   1.082  0.4403 -0.1298 -0.3829
 4567TIP3    H130273   3.651   5.884   1.013  0.1232  0.0845 -0.2643
 4567TIP3    H230274   3.540   5.826   1.099  0.6384  0.3747  0.6137
 4568TIP3   OH230275   4.277   3.385   1.050 -0.5433 -0.1097  0.4419
 4568TIP3    H130276   4.315   3.463   1.091 -0.6461  0.1260  0.0980
 4568TIP3    H230277   4.332   3.313   1.080  0.1040  0.2084  0.0530
 4569TIP3   OH230278   4.532   6.400   1.010 -0.2235 -0.6529  0.1508
 4569TIP3    H130279   4.464   6.467   1.016  0.4649  0.0558  0.2497
 4569TIP3    H230280   4.493   6.331   0.956 -0.8167 -0.0035 -0.2721
 4570TIP3   OH230281   5.806   3.006   0.705 -0.0218 -0.0349  0.0285
 4570TIP3    H130282   5.780   2.919   0.675 -1.4033  0.6035 -0.7594
 4570TIP3    H230283   5.770   3.013   0.793  0.7333 -0.5200  0.3828
 4571TIP3   OH230284   0.436   3.639   8.118  0.4834  0.2924 -0.4919
 4571TIP3    H130285   0.471   3.549   8.118  1.1048  0.5196 -1.2518
 4571TIP3    H230286   0.510   3.693   8.089  0.1112  1.0491 -0.0452
 4572TIP3   OH230287   5.160   3.904   0.589 -0.0787 -0.0194  0.2130
 4572TIP3    H130288   5.155   3.949   0.673  0.3027 -0.5254  0.5101
 4572TIP3    H230289   5.224   3.834   0.602 -0.6208 -0.6209 -0.2521
 4573TIP3   OH230290   6.355   0.506   1.353 -0.1195 -0.3517 -0.1187
 4573TIP3    H130291   6.414   0.552   1.413  0.1124  0.4827 -0.9693
 4573TIP3    H230292   6.391   0.523   1.266 -1.2432 -0.3721 -0.6082
 4574TIP3   OH230293   2.363   2.734   6.408 -0.0918  0.0369  0.2574
 4574TIP3    H130294   2.455   2.761   6.416 -0.3518  0.6426  1.2914
 4574TIP3    H230295   2.366   2.659   6.348  1.0935 -0.0460  0.3848
 4575TIP3   OH230296   2.028   3.735   0.455 -0.2618  0.0025  0.6856
 4575TIP3    H130297   1.963   3.805   0.458  1.3267  1.5192  0.9026
 4575TIP3    H230298   1.990   3.670   0.396 -1.4290  1.4208 -0.1949
 4576TIP3   OH230299   4.214   1.003   7.555  0.3997  0.3310  0.0036
 4576TIP3    H130300   4.294   0.967   7.594 -0.6500 -3.3322 -0.8122
 4576TIP3    H230301   4.157   0.927   7.543 -4.3005  2.8909  2.7446
 4577TIP3   OH230302   2.880   0.441   2.999 -0.1618  0.8747  0.4057
 4577TIP3    H130303   2.827   0.362   2.988 -1.5446  1.4029  2.5461
 4577TIP3    H230304   2.969   0.415   2.974 -0.5882 -1.3701  1.0488
 4578TIP3   OH230305  -0.027   4.400   0.368  0.5173 -0.8244  0.5211
 4578TIP3    H130306   0.068   4.387   0.379  0.4680 -2.6740 -0.7140
 4578TIP3    H230307  -0.041   4.393   0.273 -0.5927  1.7750  0.4246
 4579TIP3   OH230308   5.151   2.837   1.309 -0.6664  0.1014 -0.0552
 4579TIP3    H130309   5.177   2.926   1.285  3.1873 -0.7387  0.4725
 4579TIP3    H230310   5.165   2.833   1.404  0.3610 -1.3952 -0.2477
 4580TIP3   OH230311   4.308   5.727   1.349 -0.7644 -0.1420 -0.7030
 4580TIP3    H130312   4.308   5.707   1.443  0.9163  0.9321 -0.4324
 4580TIP3    H230313   4.376   5.794   1.339 -1.2570  0.1154 -2.6200
 4581TIP3   OH230314   2.277   1.196   0.228  0.1557  0.2287  0.0761
 4581TIP3    H130315   2.209   1.132   0.248  0.9358 -0.5927  0.1567
 4581TIP3    H230316   2.230   1.272   0.195 -0.9991  0.6323  2.4458
 4582TIP3   OH230317   3.711   6.230   1.045  0.2998  0.0207  0.2448
 4582TIP3    H130318   3.669   6.253   0.963  1.4117  0.4767 -0.2091
 4582TIP3    H230319   3.641   6.189   1.097 -0.0558 -1.6781 -1.4806
 4583TIP3   OH230320   5.716   3.075   7.895 -0.3953 -0.0721  0.0133
 4583TIP3    H130321   5.678   3.160   7.917 -1.1493 -0.1690 -0.8708
 4583TIP3    H230322   5.748   3.086   7.806  1.2107 -0.1574  0.5474
 4584TIP3   OH230323   5.492   1.555   0.402 -0.5336  0.7371 -0.4981
 4584TIP3    H130324   5.583   1.580   0.418 -0.1444 -0.6397 -0.4036
 4584TIP3    H230325   5.496   1.461   0.382 -2.0027  0.4810  0.2313
 4585TIP3   OH230326   0.405   4.814   0.782 -0.7003  0.1103  0.3646
 4585TIP3    H130327   0.436   4.876   0.716 -1.1547  0.5242  0.5282
 4585TIP3    H230328   0.362   4.745   0.732  0.8823 -0.7428  0.0957
 4586TIP3   OH230329   4.648   2.153   8.286  0.3695 -0.4226 -0.0365
 4586TIP3    H130330   4.643   2.232   8.232 -0.8117  0.4138  1.2138
 4586TIP3    H230331   4.720   2.170   8.346  0.5619 -0.5965 -0.2180
 4587TIP3   OH230332   0.385   2.476   9.039  0.4734  0.2462  0.0585
 4587TIP3    H130333   0.305   2.491   8.990  0.8700  0.5415 -0.5115
 4587TIP3    H230334   0.358   2.481   9.131 -0.0118  1.2218 -0.1158
 4588TIP3   OH230335   6.074   1.438   9.178 -0.1638 -0.4946  0.3825
 4588TIP3    H130336   6.145   1.378   9.158  1.4967  1.3096  0.4923
 4588TIP3    H230337   6.105   1.485   9.256  0.3908  2.9984 -1.7170
 4589TIP3   OH230338   6.462   5.914   7.608 -0.3775 -0.0948  0.6007
 4589TIP3    H130339   6.373   5.879   7.609  0.3634 -2.2049 -1.1323
 4589TIP3    H230340   6.487   5.913   7.515  1.5276  0.2448  1.0797
 4590TIP3   OH230341   5.160   1.141   7.244 -0.3852 -0.4245  0.4181
 4590TIP3    H130342   5.087   1.191   7.280  0.6880  1.7840 -0.2981
 4590TIP3    H230343   5.126   1.102   7.164 -1.6265 -2.0545  1.6799
 4591TIP3   OH230344   5.849   4.272   8.544 -0.0449  0.0056  0.4780
 4591TIP3    H130345   5.763   4.234   8.564  0.5016 -1.3479  0.3530
 4591TIP3    H230346   5.888   4.290   8.629  0.2306 -1.0112  0.5818
 4592TIP3   OH230347   5.901   0.606   6.839 -0.9340 -0.1182 -0.3193
 4592TIP3    H130348   5.807   0.621   6.846 -0.8572  1.5871 -2.0859
 4592TIP3    H230349   5.941   0.680   6.886 -0.5014  0.0194 -0.8861
 4593TIP3   OH230350   5.109   0.198   7.919 -0.0211  0.0913 -0.1348
 4593TIP3    H130351   5.039   0.155   7.870 -0.7541  0.4051  0.6072
 4593TIP3    H230352   5.066   0.231   7.998  0.4990  2.2625 -0.7069
 4594TIP3   OH230353   4.189   1.625   1.897  0.0515 -0.4555 -0.3655
 4594TIP3    H130354   4.114   1.579   1.858  0.2100  0.0441 -1.2848
 4594TIP3    H230355   4.254   1.631   1.826  0.8668 -0.6695  0.3527
 4595TIP3   OH230356   4.577   1.346   1.421  0.4146 -0.1043 -0.4644
 4595TIP3    H130357   4.509   1.308   1.476  1.4020 -0.0005  0.8646
 4595TIP3    H230358   4.645   1.278   1.417  0.7890  0.2822 -0.7313
 4596TIP3   OH230359   4.285   2.631   8.753  0.0048 -0.2907  0.3574
 4596TIP3    H130360   4.289   2.599   8.843 -1.1658 -0.3252  0.4145
 4596TIP3    H230361   4.207   2.687   8.751  1.0959  1.2932 -0.1454
 4597TIP3   OH230362   5.841   0.977   0.947  0.2413  0.4445 -0.3759
 4597TIP3    H130363   5.864   1.069   0.962 -1.5699  1.2042 -1.8420
 4597TIP3    H230364   5.844   0.937   1.034 -0.5124  2.2808  0.5424
 4598TIP3   OH230365   4.710   1.273   7.166 -0.2505 -0.0809 -0.9605
 4598TIP3    H130366   4.675   1.248   7.081 -0.3776  0.0296 -0.9403
 4598TIP3    H230367   4.728   1.366   7.158  0.5125 -0.2330 -1.1356
 4599TIP3   OH230368   2.987   6.437   0.440 -0.5221 -0.1419 -0.0554
 4599TIP3    H130369   2.971   6.343   0.435 -0.6999 -0.0484 -2.9389
 4599TIP3    H230370   3.043   6.448   0.516 -1.2428 -2.4487  0.8864
 4600TIP3   OH230371   3.771   0.194   2.475 -0.3176  0.3414  0.3025
 4600TIP3    H130372   3.802   0.136   2.545 -0.6600 -0.2836 -0.0514
 4600TIP3    H230373   3.822   0.274   2.486  1.1466 -0.5130 -0.0306
 4601TIP3   OH230374   4.300   2.353   1.999 -0.0584 -0.4050  0.7975
 4601TIP3    H130375   4.268   2.418   2.062  0.1595 -0.8669  1.3992
 4601TIP3    H230376   4.227   2.291   1.989 -1.2630  1.2323 -1.7134
 4602TIP3   OH230377   4.113   2.303   8.595 -0.0618  0.5392 -0.2226
 4602TIP3    H130378   4.128   2.214   8.564 -0.1368 -0.3972  2.1981
 4602TIP3    H230379   4.023   2.302   8.627  0.0674  1.3687  0.1888
 4603TIP3   OH230380   3.273   3.970   7.738 -0.2010  0.4160  0.1047
 4603TIP3    H130381   3.237   3.949   7.824 -0.0246  1.2390  0.3905
 4603TIP3    H230382   3.206   4.023   7.696 -0.2312  0.1248 -0.2108
 4604TIP3   OH230383   1.392   6.210   2.529  0.2133 -0.4063  0.4544
 4604TIP3    H130384   1.347   6.289   2.501  0.1776 -0.1619  1.1832
 4604TIP3    H230385   1.456   6.241   2.594 -1.7953 -1.2937  3.0016
 4605TIP3   OH230386   1.046   2.105   2.889 -0.0515  0.2632  0.0894
 4605TIP3    H130387   0.953   2.113   2.870 -0.0743  1.0014  0.4492
 4605TIP3    H230388   1.053   2.028   2.946 -0.2457 -0.6504 -1.0951
 4606TIP3   OH230389   0.583   4.355   6.679  0.2059  0.4415  0.3364
 4606TIP3    H130390   0.612   4.365   6.589  2.2036  0.9747  0.9839
 4606TIP3    H230391   0.573   4.445   6.711 -1.2909  0.2597  0.4285
 4607TIP3   OH230392   3.069   2.721   0.609 -0.3964 -0.4438  0.2693
 4607TIP3    H130393   3.133   2.667   0.563 -1.0360 -0.0190 -1.1751
 4607TIP3    H230394   3.110   2.808   0.614 -0.5903 -0.3256 -0.1128
 4608TIP3   OH230395   4.490   0.788   7.733  0.3372 -0.0683 -0.1254
 4608TIP3    H130396   4.558   0.777   7.799  1.2531  0.8895 -0.8627
 4608TIP3    H230397   4.479   0.701   7.695  1.3849 -0.1890 -0.1919
 4609TIP3   OH230398   2.167   2.298   8.101 -0.0964 -0.8749 -0.0155
 4609TIP3    H130399   2.086   2.334   8.138 -1.2050 -1.3660 -1.8183
 4609TIP3    H230400   2.208   2.372   8.056 -0.7748 -1.1108 -1.0688
 4610TIP3   OH230401   0.677   5.137   1.252 -0.6311 -0.0470 -0.5977
 4610TIP3    H130402   0.622   5.209   1.220  0.0714  0.5321 -0.5495
 4610TIP3    H230403   0.631   5.104   1.328 -1.5589 -0.4324 -1.3036
 4611TIP3   OH230404   2.471   2.146   3.005  0.3495 -0.0304  0.6429
 4611TIP3    H130405   2.484   2.240   2.995 -1.8331  0.2204 -0.4843
 4611TIP3    H230406   2.538   2.119   3.068  0.9221  2.2844  1.1301
 4612TIP3   OH230407   4.565   1.754   9.243 -0.4126  0.4459  0.0137
 4612TIP3    H130408   4.515   1.724   9.167  0.7940 -1.9959  0.1077
 4612TIP3    H230409   4.653   1.770   9.209  0.1966 -0.8737  0.8700
 4613TIP3   OH230410   4.341   1.560   8.688 -0.0850 -0.1424  0.2210
 4613TIP3    H130411   4.307   1.649   8.696  0.9128  0.1380  1.7017
 4613TIP3    H230412   4.285   1.507   8.745 -3.9793 -1.6092 -4.3103
 4614TIP3   OH230413   6.293   1.050   1.226  0.4491 -0.4577 -0.2230
 4614TIP3    H130414   6.247   0.967   1.236  0.8032 -0.7416 -0.9296
 4614TIP3    H230415   6.368   1.043   1.286  1.0975 -1.1011 -1.0938
 4615TIP3   OH230416   0.148   2.650   1.294  0.4038 -0.8524  0.3004
 4615TIP3    H130417   0.189   2.581   1.241  0.0772 -0.5491 -0.3691
 4615TIP3    H230418   0.187   2.641   1.381 -0.9363 -3.0687  0.7601
 4616TIP3   OH230419   4.152   5.215   1.966  0.6185  0.1351  0.2317
 4616TIP3    H130420   4.085   5.175   1.910  1.5331 -1.0631 -0.0433
 4616TIP3    H230421   4.190   5.141   2.013  1.3829  0.8734  0.7861
 4617TIP3   OH230422   1.810   2.660   6.919 -0.5876 -0.7012 -0.4218
 4617TIP3    H130423   1.807   2.720   6.845 -0.9512  0.2911  0.3867
 4617TIP3    H230424   1.862   2.586   6.887  0.3173  0.2614 -1.2627
 4618TIP3   OH230425   3.227   0.565   2.181  0.0975  0.0028 -0.0799
 4618TIP3    H130426   3.168   0.498   2.216  0.6351 -1.2583 -1.4397
 4618TIP3    H230427   3.210   0.563   2.086 -0.0488  2.0000 -0.1283
 4619TIP3   OH230428   3.472   4.935   0.471  0.3219 -0.5483 -0.6860
 4619TIP3    H130429   3.505   5.024   0.455 -1.0945  0.1403  0.0512
 4619TIP3    H230430   3.416   4.916   0.396  2.2321 -1.7046 -1.9170
 4620TIP3   OH230431   3.841   6.277   8.167 -0.2185  0.0894 -0.1025
 4620TIP3    H130432   3.901   6.351   8.174 -0.6060  0.3868  0.1297
 4620TIP3    H230433   3.869   6.218   8.237 -2.2462  1.7352  2.2887
 4621TIP3   OH230434   4.803   5.837   8.018 -0.2724  0.1460  0.4587
 4621TIP3    H130435   4.835   5.927   8.015 -0.4487  0.1738 -1.2478
 4621TIP3    H230436   4.709   5.846   8.033 -0.1733  0.2123  1.0594
 4622TIP3   OH230437   2.273   0.716   2.951  0.7377  0.1978  0.7270
 4622TIP3    H130438   2.186   0.732   2.912 -0.6020  0.0858  3.4283
 4622TIP3    H230439   2.300   0.631   2.916  0.6163  1.0267 -1.5141
 4623TIP3   OH230440  -0.037   1.998   0.134  0.2343  0.8556 -0.1887
 4623TIP3    H130441   0.013   2.079   0.120  0.8860  0.3084 -1.1166
 4623TIP3    H230442   0.024   1.928   0.114 -0.7593  0.1627 -0.9346
 4624TIP3   OH230443   2.813   6.333   2.601 -0.0655 -0.0064 -0.2289
 4624TIP3    H130444   2.885   6.293   2.552  0.9954  1.5191  0.0239
 4624TIP3    H230445   2.771   6.259   2.645  1.2424 -0.9615 -0.5124
 4625TIP3   OH230446   3.908   3.496   6.549  0.0563 -0.0042  0.2550
 4625TIP3    H130447   3.968   3.421   6.541  0.9707  0.3936  2.5811
 4625TIP3    H230448   3.829   3.459   6.588 -1.2905 -0.4885 -2.6283
 4626TIP3   OH230449   3.057   0.845   1.850  0.2932  0.5133  0.6463
 4626TIP3    H130450   3.066   0.887   1.936 -1.5120  0.2262  1.0168
 4626TIP3    H230451   2.965   0.859   1.826  0.5391 -0.1940 -0.8399
 4627TIP3   OH230452   1.993   5.206   1.256 -0.6782 -0.1723  0.3134
 4627TIP3    H130453   2.070   5.197   1.201 -0.0460 -0.3949  1.2127
 4627TIP3    H230454   1.920   5.213   1.195  0.1315  0.8892 -0.5600
 4628TIP3   OH230455   4.087   2.214   7.910 -0.5918 -0.6896  0.0021
 4628TIP3    H130456   4.142   2.239   7.836 -2.1256 -0.7196 -1.1868
 4628TIP3    H230457   4.078   2.295   7.960 -0.9674 -0.2263 -0.8000
 4629TIP3   OH230458   2.173   5.897   2.242  0.4354 -0.1261 -0.2825
 4629TIP3    H130459   2.166   5.980   2.197 -1.2165 -0.5089 -0.8025
 4629TIP3    H230460   2.087   5.856   2.231  0.9219 -1.5092  0.7169
 4630TIP3   OH230461   4.838   6.146   6.700 -0.3829 -0.7389  0.3678
 4630TIP3    H130462   4.824   6.086   6.773  0.8393 -0.4901  0.8299
 4630TIP3    H230463   4.794   6.104   6.626  1.3635 -2.8048  0.3871
 4631TIP3   OH230464   0.417   5.788   6.384  0.3607 -0.5136  0.0275
 4631TIP3    H130465   0.455   5.737   6.313  0.4492 -2.7784  1.5910
 4631TIP3    H230466   0.322   5.774   6.375  0.3264 -0.2295 -0.0545
 4632TIP3   OH230467   4.845   2.956   8.290  0.3035  0.2331 -0.4184
 4632TIP3    H130468   4.926   2.998   8.321  0.7285 -0.6605 -0.2796
 4632TIP3    H230469   4.869   2.916   8.207  0.2347 -0.7070 -0.0067
 4633TIP3   OH230470   4.775   4.985   8.456  0.1008  0.4121 -0.6370
 4633TIP3    H130471   4.788   4.897   8.493  2.4578  0.7842 -0.4166
 4633TIP3    H230472   4.823   4.983   8.374 -0.3947  1.3061 -0.9519
 4634TIP3   OH230473   0.499   1.528   1.045  0.3006 -0.7144 -0.2714
 4634TIP3    H130474   0.588   1.557   1.066 -0.3980  1.2900  0.1112
 4634TIP3    H230475   0.449   1.545   1.124 -1.0992  1.2980 -1.5254
 4635TIP3   OH230476   3.798   5.347   7.105 -0.7886 -0.6692  0.1654
 4635TIP3    H130477   3.872   5.394   7.066 -1.6033 -0.6007 -1.3295
 4635TIP3    H230478   3.723   5.369   7.051 -1.5828 -2.1321  0.6043
 4636TIP3   OH230479   0.348   6.202   1.325 -0.0102  0.1912 -0.1217
 4636TIP3    H130480   0.290   6.213   1.400 -0.7727 -1.0499 -0.5021
 4636TIP3    H230481   0.418   6.143   1.357 -0.6152 -0.7591 -0.5062
 4637TIP3   OH230482   6.083   6.098   7.522  0.2339  0.0774  0.0103
 4637TIP3    H130483   5.998   6.056   7.527 -1.1166  2.2798 -2.4352
 4637TIP3    H230484   6.077   6.172   7.583  1.8385 -1.8406  2.6794
 4638TIP3   OH230485   3.541   0.840   8.547 -0.2991  0.1773  0.3240
 4638TIP3    H130486   3.450   0.856   8.524 -0.2564 -0.8345 -0.6380
 4638TIP3    H230487   3.537   0.771   8.613 -0.1873 -1.5327 -1.3577
 4639TIP3   OH230488   1.780   0.880   1.768 -0.1460 -0.3981 -0.4810
 4639TIP3    H130489   1.684   0.874   1.765 -0.1541 -0.5152 -0.0304
 4639TIP3    H230490   1.798   0.934   1.845  0.1031  0.8707 -1.3976
 4640TIP3   OH230491   6.357   3.131   6.956 -0.1122  0.3595  0.4929
 4640TIP3    H130492   6.406   3.214   6.961 -1.0684  0.8462  2.9166
 4640TIP3    H230493   6.266   3.158   6.946 -0.1809 -0.5106 -1.6627
 4641TIP3   OH230494   1.026   2.748   6.596  0.2720  1.0466  0.1569
 4641TIP3    H130495   0.997   2.720   6.682  1.8448 -0.0218  0.3798
 4641TIP3    H230496   1.109   2.702   6.582 -0.8778 -0.4386 -2.7576
 4642TIP3   OH230497   0.938   0.285   8.059 -0.1971  0.3291  0.2360
 4642TIP3    H130498   0.887   0.306   8.137 -0.0650  0.6650  0.2357
 4642TIP3    H230499   0.931   0.190   8.050  0.9383  0.0984  1.4532
 4643TIP3   OH230500   4.470   3.644   9.129  0.1708  0.1348  0.3075
 4643TIP3    H130501   4.464   3.580   9.199 -1.2978 -0.4664 -0.3378
 4643TIP3    H230502   4.446   3.596   9.050  2.1480  0.6968 -0.7161
 4644TIP3   OH230503   2.050   5.708   7.272 -0.2787 -0.1332  0.3269
 4644TIP3    H130504   2.086   5.797   7.272 -1.0981  0.2495 -1.2416
 4644TIP3    H230505   2.003   5.701   7.355 -2.0466  1.7338 -0.4328
 4645TIP3   OH230506   0.618   5.657   2.913 -0.6929  0.1845 -0.2451
 4645TIP3    H130507   0.698   5.610   2.935 -0.5826  1.3963  2.2064
 4645TIP3    H230508   0.648   5.745   2.888 -1.1577  0.1486 -0.9531
 4646TIP3   OH230509   1.124   5.342   2.461  0.1259  0.1650  0.1537
 4646TIP3    H130510   1.215   5.314   2.461 -0.1942 -1.0214 -1.6530
 4646TIP3    H230511   1.078   5.275   2.412 -1.6475  1.0335  0.5354
 4647TIP3   OH230512   5.084   1.588   2.234  0.2359  0.1571 -0.1617
 4647TIP3    H130513   5.072   1.633   2.317 -0.7671 -0.9361  0.3131
 4647TIP3    H230514   5.097   1.658   2.170 -1.3396  1.1291  0.5299
 4648TIP3   OH230515   1.698   5.993   7.803 -0.2273 -0.2580 -0.4565
 4648TIP3    H130516   1.631   6.056   7.778  0.5530  0.4163 -0.9218
 4648TIP3    H230517   1.750   6.037   7.870 -1.1764 -1.3690  1.0768
 4649TIP3   OH230518   1.976   3.479   2.274 -0.0449  1.4738 -0.1214
 4649TIP3    H130519   2.029   3.557   2.289 -1.1547  2.0234  1.1935
 4649TIP3    H230520   1.890   3.501   2.312 -0.6859 -0.0069 -0.6407
 4650TIP3   OH230521   5.070   5.865   2.740 -0.2004  0.8903  0.4301
 4650TIP3    H130522   5.042   5.794   2.798  1.2467 -0.5805 -0.6054
 4650TIP3    H230523   5.158   5.841   2.713  0.5459  3.3477  0.4252
 4651TIP3   OH230524   1.641   5.612   2.429  0.0291  0.4434 -0.3351
 4651TIP3    H130525   1.652   5.518   2.437 -2.4057  0.0909 -0.2871
 4651TIP3    H230526   1.643   5.644   2.519  0.2017  0.3507 -0.3055
 4652TIP3   OH230527   4.535   5.988   7.934  0.0720 -0.1190  0.1622
 4652TIP3    H130528   4.441   6.000   7.949  0.0058 -0.3686 -0.0461
 4652TIP3    H230529   4.557   6.052   7.867 -0.1689 -0.7735 -0.5534
 4653TIP3   OH230530   6.143   1.556   7.183 -0.0921 -0.3583  0.2478
 4653TIP3    H130531   6.084   1.481   7.173  0.2549 -0.3918 -1.8130
 4653TIP3    H230532   6.105   1.624   7.128 -0.1171  0.8443  1.6984
 4654TIP3   OH230533  -0.037   1.266   6.809 -0.2557  0.8086 -0.4410
 4654TIP3    H130534   0.014   1.192   6.776 -1.7581 -0.0847 -0.8941
 4654TIP3    H230535   0.027   1.336   6.821  0.9280  0.0387 -1.8352
 4655TIP3   OH230536   2.669   3.550   0.448 -0.0529  0.2508  0.1838
 4655TIP3    H130537   2.759   3.535   0.478 -0.2974  0.0227  0.8223
 4655TIP3    H230538   2.629   3.602   0.517  0.3020  2.5800 -1.2666
 4656TIP3   OH230539   0.146   2.322   1.990  0.3804 -0.2255  0.0314
 4656TIP3    H130540   0.138   2.232   1.959 -0.4055 -0.2671  0.3341
 4656TIP3    H230541   0.174   2.314   2.081 -3.0045 -0.3160  1.1839
 4657TIP3   OH230542   0.010   2.351   1.080  0.7615 -0.3589 -0.7763
 4657TIP3    H130543   0.010   2.316   1.169 -0.1387 -0.1711 -0.6984
 4657TIP3    H230544   0.007   2.446   1.093  3.9802 -0.1241 -0.9618
 4658TIP3   OH230545   3.094   6.001   2.003 -0.5163  0.4285 -0.0920
 4658TIP3    H130546   3.092   5.917   1.956  0.4154 -0.6116  1.6148
 4658TIP3    H230547   3.020   5.996   2.063  0.1362  0.3821  0.7202
 4659TIP3   OH230548   6.434   4.204   9.283 -0.4916  0.2101  0.1183
 4659TIP3    H130549   6.348   4.242   9.266 -1.3228 -1.7139 -0.2270
 4659TIP3    H230550   6.480   4.210   9.199 -1.4227 -1.4213 -0.5673
 4660TIP3   OH230551   6.316   4.956   6.685 -0.0751 -0.8285 -0.1887
 4660TIP3    H130552   6.282   4.871   6.655 -3.7308  0.0603  0.9690
 4660TIP3    H230553   6.303   5.015   6.611 -0.0863 -0.7116 -0.0945
 4661TIP3   OH230554   0.289   2.492   8.655  0.2418 -0.0358 -0.2158
 4661TIP3    H130555   0.252   2.453   8.734  0.4842  0.3462  0.0896
 4661TIP3    H230556   0.361   2.434   8.631  1.4947  0.9140  1.0207
 4662TIP3   OH230557   0.040   3.930   1.301 -0.3790  0.0927 -0.1795
 4662TIP3    H130558   0.052   3.971   1.216  1.3323  0.7192  0.3152
 4662TIP3    H230559   0.126   3.937   1.344 -1.0206 -0.7519  1.3562
 4663TIP3   OH230560   3.108   4.498   2.082 -0.0287  0.4055 -0.1454
 4663TIP3    H130561   3.036   4.442   2.053 -0.3504  1.4025 -1.3759
 4663TIP3    H230562   3.183   4.439   2.090 -1.1452 -0.8308  2.0821
 4664TIP3   OH230563   3.179   5.947   1.377 -0.5821  0.2399 -0.4775
 4664TIP3    H130564   3.094   5.909   1.399 -0.6840  0.4006 -0.5903
 4664TIP3    H230565   3.234   5.931   1.453 -0.6956  0.0776 -0.4308
 4665TIP3   OH230566   3.672   6.078   9.436  0.3617 -0.5314 -0.1802
 4665TIP3    H130567   3.631   6.119   9.360  0.9816  0.6403  0.1000
 4665TIP3    H230568   3.731   6.013   9.399  0.4665 -0.1526 -0.6941
 4666TIP3   OH230569   6.162   4.970   0.061  0.0129  0.0303 -0.2137
 4666TIP3    H130570   6.114   4.888   0.069  2.3476 -1.2443  2.0077
 4666TIP3    H230571   6.114   5.019  -0.006 -2.7980 -2.1559  0.0080
 4667TIP3   OH230572   4.083   4.621   8.998  0.3484  0.0352  0.0373
 4667TIP3    H130573   4.174   4.640   8.974  0.3543 -0.6692 -0.5581
 4667TIP3    H230574   4.057   4.693   9.056  1.6932 -0.4143  1.2593
 4668TIP3   OH230575   6.205   1.400   7.751 -0.1590  0.0843  0.2628
 4668TIP3    H130576   6.181   1.473   7.695 -2.9087 -0.1306  1.0041
 4668TIP3    H230577   6.300   1.392   7.741  0.0150  2.6950 -1.0657
 4669TIP3   OH230578   6.275   0.902   0.160 -0.0023  0.7026  0.1530
 4669TIP3    H130579   6.324   0.831   0.119 -0.6659  0.3162  0.0152
 4669TIP3    H230580   6.341   0.969   0.179  0.4041  0.6913 -1.0939
 4670TIP3   OH230581   5.718   1.468   7.652 -0.5388 -0.0061  0.4468
 4670TIP3    H130582   5.797   1.423   7.623  0.0674  1.1437  0.2265
 4670TIP3    H230583   5.730   1.478   7.747 -0.8208 -0.5605  0.5466
 4671TIP3   OH230584   3.707   5.128   1.959  0.4692  0.5096 -0.2922
 4671TIP3    H130585   3.766   5.176   1.901  0.6035  1.6484  0.7517
 4671TIP3    H230586   3.684   5.050   1.909  0.9454  1.2175 -1.6875
 4672TIP3   OH230587   3.296   2.980   1.903 -0.2707 -0.8639 -0.0363
 4672TIP3    H130588   3.315   3.041   1.831 -1.7710 -1.2254 -0.7578
 4672TIP3    H230589   3.241   2.913   1.864 -2.3313 -0.3089  1.7494
 4673TIP3   OH230590   5.758   0.331   1.538 -0.4388  0.1526  0.0391
 4673TIP3    H130591   5.849   0.344   1.567  0.2862  1.4404 -2.5103
 4673TIP3    H230592   5.723   0.419   1.531 -0.7389 -0.0959 -2.2479
 4674TIP3   OH230593   0.661   3.518   1.313 -0.0185 -0.6099 -0.2189
 4674TIP3    H130594   0.748   3.493   1.282  0.2461  1.3010 -1.1542
 4674TIP3    H230595   0.638   3.594   1.261 -1.6060 -0.1365  1.0884
 4675TIP3   OH230596   6.326   4.741   1.854  0.9548 -0.1488 -0.2582
 4675TIP3    H130597   6.353   4.664   1.904  1.1831 -0.2910 -0.5922
 4675TIP3    H230598   6.245   4.714   1.810 -0.0216  0.4378  1.1258
 4676TIP3   OH230599   0.904   5.810   7.916 -0.7054  0.3783  0.4000
 4676TIP3    H130600   0.963   5.741   7.887 -0.1782  1.0811 -0.2706
 4676TIP3    H230601   0.959   5.889   7.917 -1.1490  0.6963  1.6868
 4677TIP3   OH230602   6.126   2.250   8.537  0.4984  0.1668  0.4147
 4677TIP3    H130603   6.120   2.176   8.597  2.5924 -1.4583 -1.2555
 4677TIP3    H230604   6.094   2.216   8.453  1.0535  1.2766 -0.2744
 4678TIP3   OH230605   0.753   2.971   9.275 -0.5253  0.3432  0.1165
 4678TIP3    H130606   0.714   3.011   9.353 -1.3127 -0.5685  0.2173
 4678TIP3    H230607   0.768   3.044   9.215 -0.2534  1.0050  0.9776
 4679TIP3   OH230608   5.099   3.892   9.327 -1.0422  0.0834 -0.8338
 4679TIP3    H130609   5.062   3.902   9.239  0.1475 -1.1672 -1.5197
 4679TIP3    H230610   5.149   3.972   9.342 -0.6860  0.0097 -1.5925
 4680TIP3   OH230611   2.949   1.513   6.618  0.2500 -0.0222  0.2511
 4680TIP3    H130612   3.022   1.574   6.628  0.2944 -0.0927  0.3546
 4680TIP3    H230613   2.871   1.568   6.621  0.3666  0.3466 -2.1308
 4681TIP3   OH230614   5.440   0.866   1.701  0.6560 -0.7645 -0.2678
 4681TIP3    H130615   5.345   0.867   1.714  0.3439  0.8800 -2.1335
 4681TIP3    H230616   5.451   0.826   1.614  1.4432  1.0922 -1.0705
 4682TIP3   OH230617   3.821   0.256   1.782  0.5417 -0.6297  0.2162
 4682TIP3    H130618   3.752   0.247   1.717  2.2013 -1.9416 -1.4781
 4682TIP3    H230619   3.783   0.222   1.863 -1.9156  1.9953  0.3313
 4683TIP3   OH230620   5.685   3.948   0.756 -0.1882  0.1311 -0.4984
 4683TIP3    H130621   5.665   4.041   0.747 -2.6940 -0.2871 -0.0736
 4683TIP3    H230622   5.775   3.945   0.790 -0.2739  2.3967  0.0589
 4684TIP3   OH230623   2.856   2.815   0.097 -0.3337 -0.3290 -0.2839
 4684TIP3    H130624   2.769   2.789   0.066 -0.0941 -0.4081 -0.9118
 4684TIP3    H230625   2.840   2.890   0.154 -0.8902 -0.8661  0.2755
 4685TIP3   OH230626   1.301   6.010   6.066 -0.5578 -0.2803 -0.1436
 4685TIP3    H130627   1.386   5.966   6.073 -1.2309 -1.7792 -0.9842
 4685TIP3    H230628   1.324   6.102   6.051  0.9103 -0.5525  0.2325
 4686TIP3   OH230629   4.008   0.454   1.115 -0.0577 -0.1478  0.5944
 4686TIP3    H130630   4.047   0.367   1.121  1.7290  0.4892 -0.7996
 4686TIP3    H230631   3.978   0.461   1.024 -1.4970  0.2013  1.0658
 4687TIP3   OH230632   0.891   1.765   6.009 -0.3029 -0.1910 -0.0972
 4687TIP3    H130633   0.810   1.736   6.051  0.0331  0.6346  1.1458
 4687TIP3    H230634   0.942   1.685   5.997 -0.7703 -0.5455  0.2621
 4688TIP3   OH230635   3.965   0.185   2.904 -0.2256 -0.3510  0.2316
 4688TIP3    H130636   3.992   0.136   2.982 -3.2731  0.5183  2.0145
 4688TIP3    H230637   3.903   0.251   2.937 -2.3042 -0.4397 -2.9917
 4689TIP3   OH230638   0.725   4.460   9.006 -0.1002  0.4489  0.2688
 4689TIP3    H130639   0.806   4.499   8.973 -0.2481 -0.6823 -1.5235
 4689TIP3    H230640   0.656   4.493   8.949 -0.4598 -0.9834 -0.1861
 4690TIP3   OH230641   1.745   4.152   0.122  0.1934 -0.0232  0.5706
 4690TIP3    H130642   1.757   4.229   0.177  0.9096  0.1372  0.1936
 4690TIP3    H230643   1.786   4.174   0.039 -0.2394 -0.5416  0.2070
 4691TIP3   OH230644   5.244   0.125   2.974 -0.3115  0.3450  0.2121
 4691TIP3    H130645   5.324   0.122   2.920  0.1740  1.4723  0.8326
 4691TIP3    H230646   5.227   0.034   2.996 -0.0023 -0.0465 -1.0917
 4692TIP3   OH230647   5.916   1.688   8.954  0.3471 -0.1564 -0.2965
 4692TIP3    H130648   5.866   1.606   8.957  1.3071 -0.7548  0.0584
 4692TIP3    H230649   5.913   1.721   9.044  1.4688 -0.7707 -0.0075
 4693TIP3   OH230650   6.298   4.620   6.194  0.2779 -0.1260 -0.1703
 4693TIP3    H130651   6.212   4.633   6.154 -0.6693  0.0455  1.7920
 4693TIP3    H230652   6.288   4.538   6.244  0.9053  0.4393  0.9127
 4694TIP3   OH230653   4.820   0.564   1.626  0.0736  1.0526 -0.6523
 4694TIP3    H130654   4.783   0.522   1.704  1.5389  0.9199  0.0067
 4694TIP3    H230655   4.858   0.492   1.576  0.9282  1.3442 -0.4531
 4695TIP3   OH230656   2.744   5.896   0.843 -0.0626  0.0698 -0.0187
 4695TIP3    H130657   2.798   5.884   0.921  0.4362  0.3811 -0.3137
 4695TIP3    H230658   2.796   5.952   0.785 -1.0380  1.0897  0.0450
 4696TIP3   OH230659   0.445   0.844   0.123  0.0968 -0.0000  0.8065
 4696TIP3    H130660   0.452   0.924   0.174  0.2255  0.5217 -0.0262
 4696TIP3    H230661   0.535   0.820   0.103  0.0349 -0.0799  0.6265
 4697TIP3   OH230662   1.492   6.014   8.198 -0.2533  0.1597 -0.0212
 4697TIP3    H130663   1.420   6.070   8.169  0.7091  2.0695  1.1239
 4697TIP3    H230664   1.482   6.010   8.294  1.8749  1.5968  0.3314
 4698TIP3   OH230665   3.497   3.256   1.681 -0.0353 -0.0932 -0.1566
 4698TIP3    H130666   3.483   3.248   1.775  0.5694  2.3043  0.2003
 4698TIP3    H230667   3.590   3.278   1.672 -0.2437  0.4295 -1.2536
 4699TIP3   OH230668   4.990   6.051   7.991  0.7457  0.3592  0.7072
 4699TIP3    H130669   5.063   6.071   8.049 -0.0119 -0.1876  1.8990
 4699TIP3    H230670   5.025   5.990   7.927  2.0858  2.3822 -0.6188
 4700TIP3   OH230671   3.448   0.709   1.193 -0.4956 -0.5000 -0.2980
 4700TIP3    H130672   3.534   0.681   1.221 -0.3648  1.3974  1.3918
 4700TIP3    H230673   3.427   0.651   1.119  1.6398 -1.8327  0.0558
 4701TIP3   OH230674   3.324   5.878   7.481 -0.6884  0.9762 -0.0200
 4701TIP3    H130675   3.247   5.935   7.484 -1.6405 -0.1168 -1.9049
 4701TIP3    H230676   3.326   5.845   7.391  0.2619 -1.3843  0.7940
 4702TIP3   OH230677   2.231   6.181   7.213  0.5019 -0.2823 -0.1241
 4702TIP3    H130678   2.226   6.133   7.130 -1.8318 -1.0648  0.3974
 4702TIP3    H230679   2.240   6.273   7.188  1.6315 -0.6623 -1.1881
 4703TIP3   OH230680   3.704   2.730   2.387  0.5328  0.0415 -0.4259
 4703TIP3    H130681   3.669   2.755   2.472  0.5366  0.0061 -0.4139
 4703TIP3    H230682   3.799   2.741   2.396  0.3869  2.8462 -1.3020
 4704TIP3   OH230683   6.469   4.864   7.731 -0.2883  0.0556 -0.0409
 4704TIP3    H130684   6.400   4.865   7.665  1.1885  2.3079 -1.6957
 4704TIP3    H230685   6.435   4.920   7.801 -0.2550  1.0507 -0.7868
 4705TIP3   OH230686   2.165   2.549   1.136 -0.4790 -0.3762 -0.3638
 4705TIP3    H130687   2.188   2.591   1.219  1.3857 -2.6084  0.3639
 4705TIP3    H230688   2.083   2.504   1.154 -0.9109  0.4321 -0.2461
 4706TIP3   OH230689   4.269   2.789   7.064  0.4232  0.0392  0.0060
 4706TIP3    H130690   4.327   2.728   7.018  1.2186  1.0621 -0.4083
 4706TIP3    H230691   4.269   2.867   7.009 -1.0828  0.1937  0.2030
 4707TIP3   OH230692   4.035   4.126   8.443  0.3876  0.0064  0.2609
 4707TIP3    H130693   4.071   4.067   8.509  0.7898 -0.2762 -0.2019
 4707TIP3    H230694   4.017   4.070   8.367 -0.6475  0.2188  0.3349
 4708TIP3   OH230695   4.014   4.036   7.586  0.4613 -0.1969 -0.3488
 4708TIP3    H130696   3.981   4.015   7.499 -1.1113  0.1675  0.1213
 4708TIP3    H230697   4.038   3.951   7.623  0.1048 -0.4708 -0.7384
 4709TIP3   OH230698   0.203   4.637   6.894  0.2192  0.8556  0.0163
 4709TIP3    H130699   0.157   4.712   6.933 -1.1136 -0.9150  2.0777
 4709TIP3    H230700   0.294   4.647   6.922 -0.7684 -0.7176  4.6631
 4710TIP3   OH230701   0.349   1.433   1.601  0.0672 -0.1721 -0.1278
 4710TIP3    H130702   0.444   1.436   1.610  0.2720 -1.9453 -1.2449
 4710TIP3    H230703   0.330   1.342   1.579 -1.7260  0.5264 -1.6620
 4711TIP3   OH230704   4.606   5.543   1.269  0.4682  0.2743  0.3640
 4711TIP3    H130705   4.606   5.543   1.365  1.6257 -0.4443  0.3965
 4711TIP3    H230706   4.609   5.635   1.245 -0.0226  0.4677  1.0164
 4712TIP3   OH230707   6.392   2.345   0.659 -0.2480 -0.8786  0.4530
 4712TIP3    H130708   6.316   2.286   0.655  0.2863 -1.5211 -1.0116
 4712TIP3    H230709   6.373   2.403   0.732 -0.7014 -3.0131  2.1297
 4713TIP3   OH230710   3.478   3.123   8.179  0.3052  0.2790 -0.0716
 4713TIP3    H130711   3.513   3.117   8.267  2.1911 -0.8554 -0.8269
 4713TIP3    H230712   3.410   3.189   8.184  0.4829  0.3553  2.1790
 4714TIP3   OH230713   5.046   6.265   1.153 -0.4026 -0.0281 -0.6310
 4714TIP3    H130714   5.064   6.359   1.142  1.5966 -0.4607 -1.5578
 4714TIP3    H230715   4.968   6.250   1.099  0.2849  0.7960 -1.9084
 4715TIP3   OH230716   4.755   1.269   0.208  0.1975  0.0868  0.1963
 4715TIP3    H130717   4.706   1.203   0.257  0.9423  0.4837  1.5290
 4715TIP3    H230718   4.750   1.240   0.117 -2.0949 -0.1426  0.3254
 4716TIP3   OH230719   1.291   5.969   1.692 -0.3738 -0.3844  0.6625
 4716TIP3    H130720   1.293   5.916   1.772  1.6704 -2.3287 -0.5624
 4716TIP3    H230721   1.251   5.912   1.626 -0.7664  0.6721 -0.0416
 4717TIP3   OH230722   5.490   2.403   1.265 -0.0822 -0.7338  0.0340
 4717TIP3    H130723   5.552   2.437   1.201  1.6318 -0.0188  1.9657
 4717TIP3    H230724   5.411   2.455   1.253  0.7809  0.5168 -0.3959
 4718TIP3   OH230725   2.772   0.975   2.428  0.2216 -0.5729 -0.4399
 4718TIP3    H130726   2.686   0.974   2.384 -1.4408 -1.4634  2.5477
 4718TIP3    H230727   2.792   1.068   2.440 -0.7363 -0.3540 -0.4525
 4719TIP3   OH230728   0.893   0.032   7.267 -0.3159 -0.5118  0.6583
 4719TIP3    H130729   0.867   0.064   7.353  1.5514  1.4758  0.5720
 4719TIP3    H230730   0.826   0.067   7.208 -0.7287 -0.5339  1.1043
 4720TIP3   OH230731   5.052   1.114   0.304 -0.1379  0.4333 -0.6120
 4720TIP3    H130732   4.965   1.127   0.266  0.1509  1.1519 -1.0492
 4720TIP3    H230733   5.081   1.202   0.329  0.1247  0.1017  0.3018
 4721TIP3   OH230734   0.275   0.191   7.057 -0.3673  0.3025  0.3681
 4721TIP3    H130735   0.354   0.141   7.035 -1.1631 -0.5132 -0.7084
 4721TIP3    H230736   0.211   0.124   7.083 -0.7300  0.9561  1.2120
 4722TIP3   OH230737   3.786   0.557   1.552  0.0525  0.2380 -0.0199
 4722TIP3    H130738   3.786   0.478   1.498 -1.0785  0.8866 -1.0036
 4722TIP3    H230739   3.850   0.614   1.512 -1.1884  0.9451 -1.0658
 4723TIP3   OH230740   5.299   4.044   1.659  0.2594  0.0709 -0.1241
 4723TIP3    H130741   5.233   4.086   1.605  1.0911 -1.4640 -2.5084
 4723TIP3    H230742   5.381   4.086   1.633  0.6366 -0.4592  0.1846
 4724TIP3   OH230743   0.530   1.681   8.061  0.1622 -0.8833  0.6086
 4724TIP3    H130744   0.488   1.658   8.144 -0.6434  1.4994  0.9273
 4724TIP3    H230745   0.468   1.741   8.019  2.1903  0.8747 -0.0135
 4725TIP3   OH230746   5.027   0.899   6.339 -0.0146  0.6131  0.0746
 4725TIP3    H130747   5.118   0.913   6.365  0.2266 -0.1451 -0.3256
 4725TIP3    H230748   5.019   0.804   6.333  0.3660  0.6707 -3.9319
 4726TIP3   OH230749   5.585   3.366   1.949  0.2821 -0.0894 -0.5071
 4726TIP3    H130750   5.678   3.383   1.959  0.2128 -0.3987  0.9088
 4726TIP3    H230751   5.545   3.453   1.950  0.4058 -0.0276  0.9207
 4727TIP3   OH230752   2.441   5.096   8.519  0.5213  0.4632 -0.5829
 4727TIP3    H130753   2.460   5.015   8.472  1.3461  1.5229 -2.1704
 4727TIP3    H230754   2.349   5.115   8.501  0.7940  0.7789 -1.6787
 4728TIP3   OH230755   5.308   1.936   7.243 -0.2539  0.4702 -0.1745
 4728TIP3    H130756   5.306   2.009   7.306 -0.9700  1.1624 -0.9673
 4728TIP3    H230757   5.372   1.875   7.279 -1.1501  0.5001  1.6071
 4729TIP3   OH230758   5.226   6.130   1.584 -0.1214  0.4818  0.0129
 4729TIP3    H130759   5.234   6.220   1.615  1.6458 -0.2391  1.8502
 4729TIP3    H230760   5.246   6.135   1.491  2.1689  1.7502  0.4898
 4730TIP3   OH230761   6.470   2.544   0.144 -0.7540  0.2186 -0.0020
 4730TIP3    H130762   6.421   2.618   0.109 -0.8269  0.9546  1.5512
 4730TIP3    H230763   6.423   2.466   0.114 -0.0711  0.7179 -2.5502
 4731TIP3   OH230764   0.247   1.855   7.303  0.7341 -0.4400  0.0954
 4731TIP3    H130765   0.265   1.776   7.251 -2.1914 -0.6326 -0.7677
 4731TIP3    H230766   0.258   1.826   7.394  0.9069 -1.5146 -0.2515
 4732TIP3   OH230767   1.171   4.321   1.091  0.2849  0.0389  0.4843
 4732TIP3    H130768   1.088   4.361   1.115  0.2609 -0.5761  1.4900
 4732TIP3    H230769   1.147   4.233   1.061  0.5681 -0.1285  0.7465
 4733TIP3   OH230770   0.702   4.982   7.276 -0.2316  0.1444 -0.2348
 4733TIP3    H130771   0.786   5.016   7.308 -0.2253 -1.5888  1.8597
 4733TIP3    H230772   0.667   5.052   7.221  1.3730  2.0119  0.9797
 4734TIP3   OH230773   3.438   5.417   7.295 -0.4112 -0.1191 -0.2277
 4734TIP3    H130774   3.529   5.436   7.275 -0.2574 -0.1754  0.4045
 4734TIP3    H230775   3.397   5.503   7.304 -0.4652 -0.0939 -0.7016
 4735TIP3   OH230776   2.414   6.117   0.315  0.5415  0.1236  0.1269
 4735TIP3    H130777   2.460   6.085   0.238  0.4452 -0.1398  0.1775
 4735TIP3    H230778   2.408   6.041   0.373 -0.7178 -0.0835 -0.2455
 4736TIP3   OH230779   2.631   0.619   2.982  0.5607  0.1929  0.0342
 4736TIP3    H130780   2.544   0.579   2.975  0.9562 -0.5348 -0.9309
 4736TIP3    H230781   2.691   0.545   2.980  1.2065  0.6791  0.8894
 4737TIP3   OH230782   1.468   0.163   9.034 -0.1004 -0.2081  0.7280
 4737TIP3    H130783   1.466   0.078   9.079 -1.5867 -0.1966  0.7239
 4737TIP3    H230784   1.387   0.165   8.984  0.8802  0.3681 -0.9030
 4738TIP3   OH230785   1.573   4.665   7.744  0.0722 -0.0560  0.1200
 4738TIP3    H130786   1.591   4.607   7.817 -0.9050  1.9891  2.1333
 4738TIP3    H230787   1.478   4.681   7.749  0.1976  1.1190 -0.7842
 4739TIP3   OH230788   1.461   6.177   1.707 -0.2529  0.4863 -0.2538
 4739TIP3    H130789   1.405   6.104   1.682 -0.5776  0.6273  0.0475
 4739TIP3    H230790   1.466   6.171   1.803 -0.0590  0.6975 -0.2497
 4740TIP3   OH230791  -0.017   1.199   7.826  0.4395 -0.7114  0.3990
 4740TIP3    H130792   0.027   1.188   7.742  0.8914  2.7402  0.0456
 4740TIP3    H230793   0.050   1.239   7.883 -0.9201  0.5380  1.2002
 4741TIP3   OH230794   5.405   4.919   9.296  0.3988  0.0603 -0.6805
 4741TIP3    H130795   5.352   4.871   9.232  0.1045  0.1597 -0.5158
 4741TIP3    H230796   5.342   4.977   9.340  0.4504 -0.5945  0.2711
 4742TIP3   OH230797   2.362   0.005   7.087  0.1598 -0.5684  0.0605
 4742TIP3    H130798   2.431   0.014   7.022  0.3866  1.4875  0.4960
 4742TIP3    H230799   2.385   0.069   7.155 -1.1990 -1.1351  1.1001
 4743TIP3   OH230800   5.928   5.372   2.545  0.0213 -0.8971 -0.1952
 4743TIP3    H130801   5.845   5.403   2.583 -0.0423 -1.2692 -0.0307
 4743TIP3    H230802   5.988   5.446   2.556  0.5349 -1.6037  2.2618
 4744TIP3   OH230803   1.395   5.710   2.537  0.1396  0.0892  0.1042
 4744TIP3    H130804   1.436   5.723   2.623  0.4294 -2.4960  0.4126
 4744TIP3    H230805   1.387   5.616   2.527 -2.3143  0.3744 -1.6219
 4745TIP3   OH230806   1.355   2.336   8.607 -0.6881  0.0880  0.4051
 4745TIP3    H130807   1.411   2.397   8.654  0.3580  0.3394 -1.0999
 4745TIP3    H230808   1.331   2.270   8.672  0.6932  0.4213  1.2872
 4746TIP3   OH230809   4.680   4.072   3.364  0.1465 -0.6825  0.3540
 4746TIP3    H130810   4.699   4.143   3.425 -1.1219  0.4359 -0.4879
 4746TIP3    H230811   4.715   4.103   3.280 -1.1695 -0.6188 -0.2053
 4747TIP3   OH230812   4.381   5.304   9.128  0.7003  0.1603  0.2903
 4747TIP3    H130813   4.464   5.285   9.171  1.0568  0.2338 -0.3438
 4747TIP3    H230814   4.396   5.387   9.083 -0.2244  0.9816  1.4476
 4748TIP3   OH230815   0.046   2.031   1.889  0.0785  0.4658  0.2831
 4748TIP3    H130816  -0.003   1.986   1.958  1.0591 -0.0804  0.6415
 4748TIP3    H230817  -0.020   2.079   1.839 -1.2945 -2.7457 -1.2250
 4749TIP3   OH230818   3.527   4.697   9.359  0.0288  0.1330  0.0333
 4749TIP3    H130819   3.451   4.649   9.326 -2.4171  1.3874  3.2355
 4749TIP3    H230820   3.524   4.684   9.454  2.5293  2.1213  0.4975
 4750TIP3   OH230821   6.386   4.078   0.123  0.5023  0.0068 -0.0917
 4750TIP3    H130822   6.403   4.150   0.063 -0.6355  0.6889  0.3550
 4750TIP3    H230823   6.455   4.083   0.188 -0.8359  2.2407  1.2890
 4751TIP3   OH230824   6.262   5.812   9.297  0.1927  0.1008 -0.4175
 4751TIP3    H130825   6.290   5.842   9.383 -1.0592  2.9347 -0.9010
 4751TIP3    H230826   6.316   5.734   9.280  0.6669 -0.3901  2.7538
 4752TIP3   OH230827   5.913   3.923   1.729  0.2337 -0.1649  0.5280
 4752TIP3    H130828   5.854   3.990   1.762  0.9523  0.4723  0.5435
 4752TIP3    H230829   5.968   3.969   1.665 -0.3279 -1.0963 -0.6657
 4753TIP3   OH230830   3.599   0.645   6.757 -0.0134 -0.9236 -0.5220
 4753TIP3    H130831   3.668   0.585   6.726  0.8472  0.3476 -1.1483
 4753TIP3    H230832   3.522   0.589   6.768  0.3010 -1.8720 -2.6934
 4754TIP3   OH230833   0.326   4.637   7.385 -0.5527  0.2829  0.0238
 4754TIP3    H130834   0.356   4.561   7.336  2.3886  1.9996 -1.1467
 4754TIP3    H230835   0.231   4.632   7.383 -0.4932 -1.8104 -2.5051
 4755TIP3   OH230836   5.036   3.083   6.575  0.0346  0.1406 -0.2140
 4755TIP3    H130837   5.124   3.112   6.597 -0.3504  1.2852 -0.1065
 4755TIP3    H230838   4.993   3.161   6.539 -1.1357 -0.2137  0.3506
 4756TIP3   OH230839   5.055   0.298   9.160  0.3387  0.4270  0.3489
 4756TIP3    H130840   4.968   0.303   9.122  0.1847  0.9990  0.7443
 4756TIP3    H230841   5.040   0.301   9.255  0.7433 -0.3285  0.4455
 4757TIP3   OH230842   4.988   2.980   8.965  0.1403 -0.1620  0.0450
 4757TIP3    H130843   4.899   2.946   8.976  0.8314 -2.0449  0.3913
 4757TIP3    H230844   5.012   3.011   9.053  0.2716 -0.8865  0.2726
 4758TIP3   OH230845   5.394   4.697   6.799 -0.4345  0.3673  0.3158
 4758TIP3    H130846   5.455   4.629   6.772  2.6712  3.0857 -0.0996
 4758TIP3    H230847   5.312   4.651   6.815  1.9136 -3.7422  2.0175
 4759TIP3   OH230848   1.676   1.062   1.533 -0.3772 -0.0359  0.2191
 4759TIP3    H130849   1.709   0.989   1.585  1.0516  0.8860  0.6634
 4759TIP3    H230850   1.594   1.086   1.576  0.9210  0.9227  2.3685
 4760TIP3   OH230851   3.030   4.864   2.767 -0.2156 -0.2190  0.2114
 4760TIP3    H130852   2.966   4.820   2.823 -1.2254  0.4349 -0.4130
 4760TIP3    H230853   3.096   4.897   2.827 -0.7975 -0.3427  0.9242
 4761TIP3   OH230854   6.019   2.463   0.459 -0.4722  0.2555  0.4160
 4761TIP3    H130855   6.061   2.439   0.541 -0.7966  0.9721  0.8026
 4761TIP3    H230856   6.084   2.516   0.413  0.1508 -1.0931 -0.3283
 4762TIP3   OH230857   2.199   3.426   2.049 -0.5523  0.0153 -0.8164
 4762TIP3    H130858   2.117   3.404   2.094 -1.3707  0.6361 -1.9256
 4762TIP3    H230859   2.175   3.427   1.956  0.5692  0.8293 -1.1198
 4763TIP3   OH230860   3.857   5.243   7.353 -0.3602  0.3711 -0.5359
 4763TIP3    H130861   3.924   5.302   7.388 -0.1997  0.4899 -1.0482
 4763TIP3    H230862   3.820   5.289   7.278  0.1533 -0.3999 -1.2886
 4764TIP3   OH230863   1.722   1.433   8.889 -0.8656  0.3422 -0.0400
 4764TIP3    H130864   1.754   1.506   8.942 -0.3879  0.3200 -0.2931
 4764TIP3    H230865   1.799   1.403   8.840 -0.9564 -0.5862  0.3475
 4765TIP3   OH230866   0.714   6.403   2.736 -0.3915  0.3366 -0.8335
 4765TIP3    H130867   0.642   6.353   2.697 -0.3172  0.4720 -1.1442
 4765TIP3    H230868   0.791   6.347   2.723 -0.6524 -0.4530  0.7329
 4766TIP3   OH230869   5.908   2.290   8.897  0.0492 -0.0933  0.3188
 4766TIP3    H130870   5.841   2.322   8.837  0.5637 -1.7231 -1.1988
 4766TIP3    H230871   5.859   2.265   8.976 -0.7718  1.1099  0.2138
 4767TIP3   OH230872   4.887   0.482   7.634 -0.0045  0.0234 -0.1891
 4767TIP3    H130873   4.875   0.401   7.586  0.1719  0.9253 -1.8341
 4767TIP3    H230874   4.829   0.474   7.710  0.5026 -1.8781  0.0527
 4768TIP3   OH230875   4.059   6.259   2.102  0.4774  0.6744  0.6930
 4768TIP3    H130876   4.043   6.353   2.098 -0.7371  0.5350  1.6170
 4768TIP3    H230877   3.972   6.220   2.110  0.9107 -0.5778 -0.2203
 4769TIP3   OH230878   3.920   1.620   9.028 -0.1918 -0.0256 -0.0188
 4769TIP3    H130879   3.833   1.600   8.995 -0.6173 -2.1011  2.1000
 4769TIP3    H230880   3.938   1.551   9.092  2.0992  1.5874  1.2220
 4770TIP3   OH230881   2.814   3.089   1.180  0.2931  0.5262 -0.2476
 4770TIP3    H130882   2.869   3.036   1.122 -0.7089 -0.8274 -0.0125
 4770TIP3    H230883   2.858   3.174   1.185  1.1548  0.2023 -1.8376
 4771TIP3   OH230884   0.757   5.114   0.184  0.8965 -0.0614  0.9142
 4771TIP3    H130885   0.734   5.111   0.091 -1.3953  0.2159  1.4162
 4771TIP3    H230886   0.853   5.107   0.185  1.0108  0.3042 -1.4637
 4772TIP3   OH230887   1.462   0.658   0.536  0.5287  0.1214  0.2480
 4772TIP3    H130888   1.483   0.609   0.615 -1.5118 -0.9386  0.2057
 4772TIP3    H230889   1.536   0.644   0.477  1.9349  0.6834  1.8211
 4773TIP3   OH230890   6.208   1.871   7.814  0.5037 -0.4993  0.1112
 4773TIP3    H130891   6.136   1.925   7.783  1.1485  0.5488  0.4140
 4773TIP3    H230892   6.197   1.788   7.766 -0.1381  0.0950 -0.8082
 4774TIP3   OH230893   4.855   1.509   1.444  0.0524 -0.6590 -0.3457
 4774TIP3    H130894   4.848   1.436   1.506  0.6052 -0.5137 -0.0966
 4774TIP3    H230895   4.794   1.488   1.374 -1.5003 -0.2458  0.8267
 4775TIP3   OH230896   5.835   1.929   2.760  0.1082  0.0566 -0.6301
 4775TIP3    H130897   5.779   1.964   2.691 -1.5023  1.4241  1.2629
 4775TIP3    H230898   5.844   2.001   2.823  0.9698 -1.3309  0.9085
 4776TIP3   OH230899   4.938   0.677   7.810  0.5075 -0.3396 -0.0552
 4776TIP3    H130900   4.905   0.639   7.729 -0.7280  0.3955  0.0600
 4776TIP3    H230901   4.980   0.759   7.783 -0.8550  0.4578  0.0986
 4777TIP3   OH230902   5.996   0.403   7.441 -0.3368  0.3811 -0.5290
 4777TIP3    H130903   6.055   0.392   7.366 -0.0003 -3.1018  0.0350
 4777TIP3    H230904   6.052   0.440   7.510  0.9619 -1.6183 -0.4114
 4778TIP3   OH230905   3.747   3.877   0.973 -0.4451 -0.2747  0.1394
 4778TIP3    H130906   3.700   3.944   0.924 -0.0080 -2.0340 -2.9269
 4778TIP3    H230907   3.787   3.924   1.046 -1.7849  2.3874 -0.7245
 4779TIP3   OH230908   4.785   5.391   0.278  0.3183 -0.1602 -0.0878
 4779TIP3    H130909   4.750   5.446   0.349  1.1776 -0.3784  0.5238
 4779TIP3    H230910   4.707   5.354   0.236 -0.2252  0.3620  0.4284
 4780TIP3   OH230911   1.624   4.505   2.769 -0.0153 -0.4528  0.0243
 4780TIP3    H130912   1.708   4.548   2.785 -0.1211 -0.2061 -0.0772
 4780TIP3    H230913   1.569   4.532   2.842  0.1433 -1.0147  0.3567
 4781TIP3   OH230914   2.544   0.669   1.610 -0.2429  0.9856 -0.1880
 4781TIP3    H130915   2.513   0.588   1.651  0.1989 -0.2147 -2.0932
 4781TIP3    H230916   2.577   0.721   1.683 -1.9865  0.1633  1.2926
 4782TIP3   OH230917   5.353   0.204   8.023  0.2647 -0.1258 -0.5694
 4782TIP3    H130918   5.382   0.242   7.940 -2.5006  0.4649 -1.3482
 4782TIP3    H230919   5.263   0.176   8.007 -0.0863 -0.7443  2.0068
 4783TIP3   OH230920   0.636   2.962   2.531  0.1891  0.1768  0.0102
 4783TIP3    H130921   0.711   2.908   2.507  0.7453  1.0864 -0.3194
 4783TIP3    H230922   0.590   2.910   2.598  0.6477 -0.7452 -0.3741
 4784TIP3   OH230923   4.991   5.090   9.201 -0.2047 -0.1236  0.5753
 4784TIP3    H130924   4.976   5.038   9.280  1.4677 -1.2738  0.1802
 4784TIP3    H230925   5.009   5.178   9.234  0.2115 -0.5298  1.4737
 4785TIP3   OH230926   6.231   3.036   0.925 -0.8374 -0.2036 -0.5061
 4785TIP3    H130927   6.156   2.979   0.942 -2.7056  2.1411 -0.4272
 4785TIP3    H230928   6.206   3.121   0.960  2.3006  0.4850  0.4145
 4786TIP3   OH230929   4.321   2.594   7.949  0.1290 -0.5792 -0.4532
 4786TIP3    H130930   4.404   2.579   7.994  1.1886  1.4254 -1.5715
 4786TIP3    H230931   4.268   2.643   8.012  0.5265 -0.2608 -0.3550
 4787TIP3   OH230932   1.533   2.767   8.140  0.2522 -0.2999  0.2637
 4787TIP3    H130933   1.456   2.762   8.195  1.1488  0.1449  1.6031
 4787TIP3    H230934   1.543   2.679   8.103 -1.3680 -0.1384 -0.6527
 4788TIP3   OH230935   1.331   1.391   9.427 -0.1619  0.2076 -0.1174
 4788TIP3    H130936   1.354   1.483   9.416 -0.2076  0.1452 -0.7630
 4788TIP3    H230937   1.405   1.343   9.389 -0.5788 -0.0067 -0.6844
 4789TIP3   OH230938   3.257   2.529   2.861  0.2192  0.2431  0.1419
 4789TIP3    H130939   3.165   2.551   2.846  0.4086  1.0875  0.1629
 4789TIP3    H230940   3.306   2.597   2.815  0.8421 -0.4528 -0.2390
 4790TIP3   OH230941   4.800   2.222   7.441  0.5172  0.4966  0.6253
 4790TIP3    H130942   4.809   2.216   7.346  0.9425 -0.5633  0.7201
 4790TIP3    H230943   4.799   2.131   7.471 -0.2840  0.7965  1.5814
 4791TIP3   OH230944   2.595   0.181   0.228 -0.1465  0.0013 -0.0681
 4791TIP3    H130945   2.585   0.086   0.233 -1.1119  0.0051 -1.3787
 4791TIP3    H230946   2.681   0.198   0.265 -0.0698 -1.3502  0.4386
 4792TIP3   OH230947   1.484   3.830   2.160 -0.0904 -0.0512 -0.2052
 4792TIP3    H130948   1.508   3.783   2.241  1.9068  0.8877 -0.1910
 4792TIP3    H230949   1.447   3.762   2.103 -0.0117 -1.0440  0.8859
 4793TIP3   OH230950   0.354   3.499   9.421  0.2617 -0.0813  0.1784
 4793TIP3    H130951   0.270   3.504   9.376 -1.2788  0.2902  2.8556
 4793TIP3    H230952   0.391   3.587   9.411  0.0609 -0.0659 -0.5077
 4794TIP3   OH230953   2.473   5.042   1.982  0.2038 -0.1099 -0.2612
 4794TIP3    H130954   2.415   4.989   1.927 -0.2291  0.4566 -0.3520
 4794TIP3    H230955   2.421   5.119   2.006  0.9441  0.4512 -0.4245
 4795TIP3   OH230956   2.076   0.859   3.089  0.6245 -0.3274  0.5323
 4795TIP3    H130957   2.035   0.915   3.023  1.3293  1.1819  1.3364
 4795TIP3    H230958   2.133   0.917   3.138  2.5419 -2.0313  0.4690
 4796TIP3   OH230959   1.160   3.557   1.024 -0.1422  0.1539  0.1823
 4796TIP3    H130960   1.228   3.599   0.970 -0.0804 -1.5882 -1.1760
 4796TIP3    H230961   1.193   3.565   1.114  0.9924  0.9083 -0.2658
 4797TIP3   OH230962   6.037   5.469   8.445  0.4599 -0.1878 -0.2071
 4797TIP3    H130963   6.039   5.375   8.464 -1.5422 -0.6478 -1.9052
 4797TIP3    H230964   6.101   5.482   8.375  0.8507 -0.2386  0.1363
 4798TIP3   OH230965   1.022   1.714   8.273  0.3217 -0.1066 -0.3836
 4798TIP3    H130966   1.016   1.781   8.205  0.0268  1.0186  0.7198
 4798TIP3    H230967   0.935   1.674   8.274  0.0245  0.5232 -0.0442
 4799TIP3   OH230968   3.195   3.628   0.765  0.3048  0.0573 -0.4977
 4799TIP3    H130969   3.174   3.708   0.813 -0.2019 -1.1198  1.3496
 4799TIP3    H230970   3.290   3.620   0.772  0.1304 -0.7681  1.5322
 4800TIP3   OH230971   4.314   0.623   1.153 -0.1716  0.3309  0.6164
 4800TIP3    H130972   4.279   0.618   1.064 -0.5000  0.2816  0.7458
 4800TIP3    H230973   4.277   0.704   1.189 -0.4032  0.1226  0.8570
 4801TIP3   OH230974   2.946   5.176   1.883 -0.1342  0.0606 -0.2113
 4801TIP3    H130975   3.024   5.146   1.932  0.2545 -1.6895 -1.7933
 4801TIP3    H230976   2.875   5.123   1.918 -0.4307  0.8603  0.4353
 4802TIP3   OH230977   4.944   0.280   2.608 -1.1028  0.6186 -0.4985
 4802TIP3    H130978   4.923   0.373   2.617 -0.2902  0.6735  1.4193
 4802TIP3    H230979   4.975   0.254   2.695 -0.8276 -1.3318 -1.1235
 4803TIP3   OH230980   3.767   2.187   6.899 -0.5591  0.2014  0.5589
 4803TIP3    H130981   3.713   2.225   6.967 -0.4355  0.0830  0.7260
 4803TIP3    H230982   3.751   2.241   6.822 -3.6043 -1.8474 -0.4131
 4804TIP3   OH230983   2.284   6.227   7.579 -0.4666  0.3229  0.1353
 4804TIP3    H130984   2.319   6.258   7.663 -1.2930  0.7442  0.3414
 4804TIP3    H230985   2.190   6.244   7.585 -0.8107 -1.2769 -0.1655
 4805TIP3   OH230986   5.481   2.138   1.671  0.3232  0.3858 -0.2516
 4805TIP3    H130987   5.489   2.219   1.620  1.3513  0.1158 -0.5319
 4805TIP3    H230988   5.428   2.164   1.747 -1.5150  0.7172 -1.5715
 4806TIP3   OH230989   2.170   0.930   2.010  0.0550 -0.2812 -0.5443
 4806TIP3    H130990   2.212   1.016   2.010 -1.7162  0.6839  1.1082
 4806TIP3    H230991   2.093   0.942   2.066 -0.3755 -2.9017 -0.4713
 4807TIP3   OH230992   5.347   3.105   8.469 -0.7489  0.0903  0.0281
 4807TIP3    H130993   5.430   3.070   8.501 -0.4254  1.4308  0.7534
 4807TIP3    H230994   5.335   3.186   8.518 -1.1560  1.3021 -1.9471
 4808TIP3   OH230995   1.191   0.482   7.360  0.4746 -0.6540 -0.4125
 4808TIP3    H130996   1.250   0.435   7.301  0.7321  0.1366 -0.7875
 4808TIP3    H230997   1.145   0.412   7.407 -0.6633 -1.3665 -2.4443
 4809TIP3   OH230998   3.275   0.065   1.625 -0.7385  0.2520  0.6230
 4809TIP3    H130999   3.370   0.064   1.617 -0.7385  0.9672  0.4684
 4809TIP3    H231000   3.248  -0.025   1.606 -0.3771  0.7175 -2.6437
 4810TIP3   OH231001   1.653   5.082   8.160  0.0090  0.1811 -0.4448
 4810TIP3    H131002   1.605   5.024   8.100 -2.4976  1.3508  0.2933
 4810TIP3    H231003   1.650   5.037   8.244  0.4036  0.1666 -0.4382
 4811TIP3   OH231004   5.128   2.166   1.537  0.0815  0.2402  0.2287
 4811TIP3    H131005   5.155   2.075   1.540  0.7716  0.4468  0.3432
 4811TIP3    H231006   5.036   2.163   1.509  0.1680 -0.4712  0.0169
 4812TIP3   OH231007   0.609   4.865   9.229  0.1439  0.1859  0.3363
 4812TIP3    H131008   0.549   4.802   9.269 -0.4134 -0.3924 -1.3300
 4812TIP3    H231009   0.688   4.814   9.209 -0.7937 -0.4204 -2.2346
 4813TIP3   OH231010   5.988   6.199   8.830 -0.5988 -0.2211 -0.2540
 4813TIP3    H131011   5.898   6.176   8.808 -0.2590 -1.4714 -0.3896
 4813TIP3    H231012   5.980   6.281   8.879 -1.7051  0.3333 -1.2902
 4814TIP3   OH231013   1.452   0.576   2.644 -0.1915 -0.2898  0.4305
 4814TIP3    H131014   1.492   0.642   2.587 -0.9244 -0.0589  0.1741
 4814TIP3    H231015   1.500   0.586   2.727  0.2849 -0.0261  0.1330
 4815TIP3   OH231016   1.136   3.200   2.038 -0.2533 -0.2453  0.2298
 4815TIP3    H131017   1.113   3.289   2.067  1.1890 -0.0600  0.8943
 4815TIP3    H231018   1.197   3.214   1.966  1.1668 -0.6593  1.3182
 4816TIP3   OH231019   6.263   1.163   0.367 -0.0623  0.3456 -0.1988
 4816TIP3    H131020   6.342   1.166   0.313  0.0368 -0.4137 -0.1018
 4816TIP3    H231021   6.210   1.236   0.335  0.9611  1.2958  0.1837
 4817TIP3   OH231022   2.491   6.135   9.197  0.1295 -0.1172 -0.2882
 4817TIP3    H131023   2.487   6.189   9.276  0.0242 -1.3177  0.5411
 4817TIP3    H231024   2.573   6.160   9.155  0.1165  0.6344  0.1141
 4818TIP3   OH231025   5.851   5.760   0.909 -0.0372 -0.0319 -0.4010
 4818TIP3    H131026   5.919   5.697   0.883 -1.6421 -1.8288 -0.4286
 4818TIP3    H231027   5.868   5.776   1.002 -1.9565 -3.8035  0.7927
 4819TIP3   OH231028   0.055   3.966   6.413  0.1367 -0.4429  0.0989
 4819TIP3    H131029   0.133   3.991   6.364 -0.2059  0.6255  0.0753
 4819TIP3    H231030  -0.008   4.035   6.394 -0.6447 -1.0224  0.5314
 4820TIP3   OH231031   2.127   2.608   9.388  0.1469 -0.4387  1.0626
 4820TIP3    H131032   2.196   2.657   9.343  0.5074 -1.1137  0.8757
 4820TIP3    H231033   2.068   2.580   9.318 -0.4023  0.2613  1.2371
 4821TIP3   OH231034   1.643   0.943   8.330  0.0899 -0.5075 -0.1335
 4821TIP3    H131035   1.734   0.960   8.304  0.8073 -1.6866  1.4088
 4821TIP3    H231036   1.614   1.024   8.370 -0.0933  0.3954 -1.9905
 4822TIP3   OH231037   0.704   5.784   6.369 -0.2235  0.0017 -0.1586
 4822TIP3    H131038   0.620   5.807   6.410  0.1370  0.6046  0.2603
 4822TIP3    H231039   0.680   5.752   6.282 -0.8513  0.8514 -0.3140
 4823TIP3   OH231040   4.301   2.209   8.951  0.4132 -0.2023 -0.3932
 4823TIP3    H131041   4.316   2.242   8.863 -0.6155 -0.0289 -0.5063
 4823TIP3    H231042   4.384   2.167   8.975  0.5340 -0.7131 -1.6367
 4824TIP3   OH231043   2.970   6.235   9.297  0.1372 -0.2113 -0.2872
 4824TIP3    H131044   3.040   6.215   9.359  0.4015 -2.5672 -1.2752
 4824TIP3    H231045   2.901   6.273   9.351  0.8642 -0.9818  1.2335
 4825TIP3   OH231046   5.785   0.376   0.527  0.3226 -0.6046  0.4545
 4825TIP3    H131047   5.794   0.440   0.598  2.1384 -1.6004  1.1833
 4825TIP3    H231048   5.742   0.301   0.569 -1.4342 -0.0786 -0.3012
 4826TIP3   OH231049   1.775   3.702   0.287  0.1058 -0.5606  0.6178
 4826TIP3    H131050   1.837   3.740   0.224  0.8926 -1.2388  0.9612
 4826TIP3    H231051   1.807   3.612   0.299 -1.4077 -1.1827  0.2026
 4827TIP3   OH231052   6.161   4.869   0.532 -0.2799  0.3720  0.2668
 4827TIP3    H131053   6.110   4.928   0.587  0.3182  1.6970 -0.5508
 4827TIP3    H231054   6.106   4.855   0.455  0.6804  2.1552 -0.8196
 4828TIP3   OH231055   3.635   1.355   1.855  0.6120 -0.2468  0.8293
 4828TIP3    H131056   3.704   1.289   1.849  1.5860  0.8031  0.0884
 4828TIP3    H231057   3.554   1.304   1.861  1.1999 -1.5346 -1.2079
 4829TIP3   OH231058   3.364   4.568   3.287  0.4338  0.0569  0.5202
 4829TIP3    H131059   3.302   4.587   3.217 -0.6501  0.1023  1.4554
 4829TIP3    H231060   3.331   4.618   3.362  0.5378 -1.3803  1.5620
 4830TIP3   OH231061   5.604   3.663   9.322  0.2397 -0.1393  0.7415
 4830TIP3    H131062   5.539   3.705   9.378  0.7591  2.3737 -0.3644
 4830TIP3    H231063   5.663   3.619   9.383 -1.8479 -1.5829  1.8182
 4831TIP3   OH231064   2.289   1.840   1.751  0.0765 -0.1741 -0.5489
 4831TIP3    H131065   2.227   1.847   1.823 -1.1180 -0.8079 -1.4638
 4831TIP3    H231066   2.332   1.755   1.765 -2.5964 -1.9888 -2.3252
 4832TIP3   OH231067   3.096   1.999   7.493 -0.2219  0.4689  0.1629
 4832TIP3    H131068   3.045   1.930   7.535 -0.1012  0.0986 -0.2813
 4832TIP3    H231069   3.080   2.077   7.545 -1.2019  0.3457  0.0570
 4833TIP3   OH231070   0.662   0.880   1.762 -0.5017 -0.1466 -0.3753
 4833TIP3    H131071   0.665   0.831   1.844  0.2510 -0.4291 -0.5649
 4833TIP3    H231072   0.633   0.968   1.787  0.3595 -0.0470  0.2816
 4834TIP3   OH231073   2.653   5.244   6.867 -0.0664  0.2779 -0.5916
 4834TIP3    H131074   2.604   5.176   6.821  0.2208 -0.1168 -0.3170
 4834TIP3    H231075   2.735   5.202   6.893 -0.0011  0.6491 -0.1793
 4835TIP3   OH231076   5.041   0.657   0.647 -0.4427 -0.0086 -0.2034
 4835TIP3    H131077   5.030   0.678   0.740 -1.5189  1.0415 -0.5501
 4835TIP3    H231078   5.043   0.741   0.603 -1.2325 -0.5327 -1.2712
 4836TIP3   OH231079   4.012   0.098   2.267  0.3809  0.0664  0.0189
 4836TIP3    H131080   4.062   0.094   2.185 -0.7015  2.1006 -0.8211
 4836TIP3    H231081   4.013   0.190   2.291 -1.9416  0.0022  0.5924
 4837TIP3   OH231082   2.758   2.632   7.653  0.3998  0.3941  0.2634
 4837TIP3    H131083   2.755   2.650   7.559  0.5977 -0.6012  0.0573
 4837TIP3    H231084   2.683   2.575   7.669 -0.6919  1.9865  1.0565
 4838TIP3   OH231085   4.824   3.926   8.294 -0.5446  0.4264 -0.3762
 4838TIP3    H131086   4.871   4.009   8.284 -1.0464  0.5119 -2.7051
 4838TIP3    H231087   4.878   3.863   8.246 -1.9329  0.2110 -1.7561
 4839TIP3   OH231088   6.324   4.631   0.555 -0.6108  0.4773  0.5673
 4839TIP3    H131089   6.275   4.713   0.564 -1.1855  0.0268  1.6668
 4839TIP3    H231090   6.349   4.629   0.463 -1.2865  1.4943  0.3387
 4840TIP3   OH231091   1.585   1.501   1.147  1.1555 -0.6356 -0.0323
 4840TIP3    H131092   1.645   1.432   1.173 -0.1550 -1.2292  1.5534
 4840TIP3    H231093   1.530   1.516   1.223 -0.3588  0.2831 -1.2357
 4841TIP3   OH231094   3.470   2.832   1.567 -0.6392  0.1720  0.1360
 4841TIP3    H131095   3.408   2.769   1.531  1.4767 -0.2641 -3.1465
 4841TIP3    H231096   3.424   2.916   1.561 -1.3107 -0.2610 -1.3017
 4842TIP3   OH231097   2.928   1.930   7.040 -0.1589  0.1173  0.0823
 4842TIP3    H131098   2.985   2.000   7.007 -1.2107  1.8646  1.7921
 4842TIP3    H231099   2.881   1.900   6.963  0.8614  0.7591 -0.8255
 4843TIP3   OH231100   0.477  -0.011   7.536  0.0424  0.1406  0.3537
 4843TIP3    H131101   0.538   0.051   7.575  0.5808 -0.1339 -0.0340
 4843TIP3    H231102   0.406  -0.019   7.600  0.3691  0.5256  0.7716
 4844TIP3   OH231103   3.037   3.021   1.044 -0.3358  0.2548  0.0203
 4844TIP3    H131104   3.002   2.992   0.960  0.7501 -0.5561 -0.1687
 4844TIP3    H231105   3.098   3.092   1.022 -1.4064  1.2918  0.3000
 4845TIP3   OH231106   3.236   3.405   7.525 -0.2584  0.3282  0.1875
 4845TIP3    H131107   3.198   3.317   7.518 -0.5217  0.3502  1.2093
 4845TIP3    H231108   3.198   3.454   7.452  0.3187 -0.5497 -0.7353
 4846TIP3   OH231109   2.099   1.894   0.260  0.2413 -0.5894 -0.1094
 4846TIP3    H131110   2.080   1.863   0.349 -0.1109 -1.6458 -0.5302
 4846TIP3    H231111   2.044   1.839   0.204 -0.1412  0.5961 -0.9327
 4847TIP3   OH231112   5.180   4.197   1.982  0.2995  1.0300 -0.8399
 4847TIP3    H131113   5.208   4.247   1.905  0.0468  1.0015 -0.9509
 4847TIP3    H231114   5.087   4.218   1.991 -0.1312 -0.4373 -1.6529
 4848TIP3   OH231115   3.125   4.760   9.156  0.6806  0.0307 -0.1359
 4848TIP3    H131116   3.062   4.692   9.131 -0.9193  0.2276  2.8551
 4848TIP3    H231117   3.073   4.823   9.206  2.8377  1.5521  0.3284
 4849TIP3   OH231118   0.988   0.678   0.667 -0.0173 -0.3712 -0.0303
 4849TIP3    H131119   1.011   0.707   0.755 -1.2439 -0.0109  0.1847
 4849TIP3    H231120   0.906   0.630   0.678  0.9392 -2.2637 -0.6701
 4850TIP3   OH231121   2.684   2.782   0.451  0.0528  0.3429  0.0289
 4850TIP3    H131122   2.701   2.688   0.459 -1.5091  0.0152 -0.2296
 4850TIP3    H231123   2.647   2.792   0.364 -1.5057  0.9047  0.7317
 4851TIP3   OH231124   1.373   1.795   1.419 -0.3462  0.1867  0.2799
 4851TIP3    H131125   1.311   1.799   1.345 -2.2634 -2.4714  1.5851
 4851TIP3    H231126   1.378   1.885   1.451 -3.3445  0.5854 -0.1121
 4852TIP3   OH231127   0.507   0.078   6.941  0.2226  0.6044 -0.5023
 4852TIP3    H131128   0.546   0.087   6.854  2.2832  0.5331  0.3563
 4852TIP3    H231129   0.555   0.005   6.981  0.0013  1.2732  1.0459
 4853TIP3   OH231130   3.936   5.236   7.806  0.1372 -0.0467 -0.1415
 4853TIP3    H131131   4.017   5.252   7.853 -1.3178 -0.3661  2.7299
 4853TIP3    H231132   3.937   5.142   7.786  0.7229  0.0686 -0.6581
 4854TIP3   OH231133   5.555   4.494   1.599 -0.6334 -0.4640  0.4762
 4854TIP3    H131134   5.603   4.570   1.565 -0.2363 -0.7655  0.3499
 4854TIP3    H231135   5.464   4.511   1.576 -0.4503 -0.3776 -0.2054
 4855TIP3   OH231136   5.697   0.790   7.675 -0.8240 -0.2221 -0.3433
 4855TIP3    H131137   5.678   0.884   7.676 -0.6874 -0.1145 -2.2893
 4855TIP3    H231138   5.612   0.748   7.662 -0.9161 -0.3998  0.7636
 4856TIP3   OH231139   2.750   6.317   8.433  0.3262  0.4166 -0.1395
 4856TIP3    H131140   2.757   6.385   8.367  2.2494 -2.1466 -2.8267
 4856TIP3    H231141   2.736   6.236   8.383  2.7895 -1.8153  2.4549
 4857TIP3   OH231142   2.870   2.613   2.121 -0.1612 -0.0011  0.4306
 4857TIP3    H131143   2.821   2.692   2.144 -0.3786 -0.1119  0.3427
 4857TIP3    H231144   2.897   2.626   2.030 -0.7291 -0.3029  0.2168
 4858TIP3   OH231145   0.138   3.697   8.133  0.3099 -0.5687 -0.2426
 4858TIP3    H131146   0.142   3.786   8.167  1.9041 -1.2592  1.6182
 4858TIP3    H231147   0.230   3.671   8.122 -0.0812 -2.2835  0.1948
 4859TIP3   OH231148   0.615   2.883   0.744  0.2492 -0.4747 -0.4808
 4859TIP3    H131149   0.596   2.816   0.677 -0.9153  0.2898 -0.9463
 4859TIP3    H231150   0.554   2.954   0.724  0.6619  0.2365  0.7288
 4860TIP3   OH231151   0.788   6.248   7.818 -0.5016  0.8181  0.5762
 4860TIP3    H131152   0.879   6.261   7.844  0.6378  1.1045 -3.0044
 4860TIP3    H231153   0.784   6.156   7.790 -0.6945  1.3176 -1.1604
 4861TIP3   OH231154   3.384   5.076   8.064  0.3264  0.3896  0.0826
 4861TIP3    H131155   3.402   5.018   8.138 -3.1374 -0.3488  0.5144
 4861TIP3    H231156   3.313   5.033   8.016  1.2766  1.6962 -2.7407
 4862TIP3   OH231157   4.266   0.165   1.045 -0.3426  0.4751  0.2002
 4862TIP3    H131158   4.273   0.144   1.138 -0.6393  0.2349  0.1709
 4862TIP3    H231159   4.336   0.229   1.030  0.2522 -0.1243  0.3962
 4863TIP3   OH231160   2.431   1.717   1.319 -0.5455 -0.1839  0.0002
 4863TIP3    H131161   2.389   1.802   1.327 -3.4443 -1.5737  0.9952
 4863TIP3    H231162   2.448   1.708   1.225 -1.1968  1.0427 -0.2624
 4864TIP3   OH231163   5.323   4.323   0.318 -0.2408 -0.5129 -0.8143
 4864TIP3    H131164   5.291   4.262   0.252  3.1946 -2.1030 -1.2540
 4864TIP3    H231165   5.290   4.289   0.401 -0.9191 -1.1122 -1.3212
 4865TIP3   OH231166   1.630   3.620   0.611  0.2526  0.4810  0.4186
 4865TIP3    H131167   1.668   3.669   0.538 -3.8234  0.9944 -1.7022
 4865TIP3    H231168   1.632   3.529   0.582 -1.1201  0.6561 -0.3561
 4866TIP3   OH231169   5.089   5.500   7.175  0.3273 -0.4937 -0.1069
 4866TIP3    H131170   5.045   5.516   7.258 -1.1605  0.2429 -1.0043
 4866TIP3    H231171   5.140   5.580   7.159 -0.0068 -0.3175 -0.2845
 4867TIP3   OH231172   6.378   1.063   6.994 -0.0618 -0.2368 -0.1336
 4867TIP3    H131173   6.284   1.044   7.003  0.2635 -1.6921  0.3961
 4867TIP3    H231174   6.381   1.144   6.944 -1.6052 -0.2211 -0.2498
 4868TIP3   OH231175   4.504   1.912   0.493  0.1939 -0.1367  0.7953
 4868TIP3    H131176   4.429   1.908   0.552 -0.2950  0.5240  0.2366
 4868TIP3    H231177   4.516   1.822   0.463 -2.4398  0.1598 -1.6074
 4869TIP3   OH231178   5.921   1.712   0.144  0.6775  0.3437 -0.6260
 4869TIP3    H131179   5.923   1.694   0.238  2.4010  1.2866 -0.4535
 4869TIP3    H231180   6.007   1.685   0.112  0.4852  0.9777 -1.7437
 4870TIP3   OH231181   1.682   3.758   1.041 -0.0081 -0.6800  0.2961
 4870TIP3    H131182   1.716   3.672   1.064  1.5161 -0.5216 -1.1458
 4870TIP3    H231183   1.689   3.761   0.946 -2.5749  0.0475  0.0672
 4871TIP3   OH231184   2.739   4.059   3.023 -0.6818  0.2707  0.4967
 4871TIP3    H131185   2.725   3.965   3.012 -0.7690  0.2857  0.4803
 4871TIP3    H231186   2.651   4.097   3.023 -0.6347  0.3835  0.1998
 4872TIP3   OH231187   0.640   1.140   2.225 -0.3221 -0.0945 -0.0344
 4872TIP3    H131188   0.719   1.087   2.216  0.1684  0.3984  1.1557
 4872TIP3    H231189   0.612   1.158   2.136  2.4101  1.9285 -0.6081
 4873TIP3   OH231190   2.765   1.639   1.746  0.3256  0.0422  0.3718
 4873TIP3    H131191   2.803   1.579   1.682  0.0949 -2.7771  2.6707
 4873TIP3    H231192   2.684   1.597   1.773 -0.5163  2.0697  1.1801
 4874TIP3   OH231193   5.418   3.902   9.044 -0.0496  0.0513  0.3584
 4874TIP3    H131194   5.468   3.822   9.023 -1.3266 -0.5761 -0.4396
 4874TIP3    H231195   5.483   3.962   9.079  1.4659 -0.4006 -1.4898
 4875TIP3   OH231196   5.545   2.108   0.308 -0.2883 -0.1019  0.2438
 4875TIP3    H131197   5.490   2.044   0.264 -2.7595  1.1677  1.3151
 4875TIP3    H231198   5.517   2.193   0.273  0.3500  0.6467  1.4607
 4876TIP3   OH231199   0.872   4.327   2.393  0.5640  0.4155  0.7530
 4876TIP3    H131200   0.818   4.250   2.410  0.5861  0.7571  2.5257
 4876TIP3    H231201   0.960   4.291   2.378  0.1234 -0.0540 -1.0437
 4877TIP3   OH231202   6.411   0.528   7.150 -0.5860 -0.3326 -0.1018
 4877TIP3    H131203   6.432   0.592   7.217 -1.0056 -0.2309 -0.0587
 4877TIP3    H231204   6.373   0.580   7.079 -0.0557 -0.4282 -0.4555
 4878TIP3   OH231205   3.372   3.431   1.471 -0.0128 -0.5863 -0.2890
 4878TIP3    H131206   3.365   3.368   1.542  0.6220 -1.3430 -0.8864
 4878TIP3    H231207   3.459   3.470   1.482  0.8855 -2.0899 -1.7591
 4879TIP3   OH231208   5.525   0.760   1.167 -0.8065  0.4008 -0.5891
 4879TIP3    H131209   5.444   0.710   1.164 -0.2536 -0.4744 -1.8230
 4879TIP3    H231210   5.549   0.773   1.075  0.5144  0.5337 -0.2472
 4880TIP3   OH231211   4.173   5.930   3.295  0.3655 -0.3502  0.6672
 4880TIP3    H131212   4.240   5.862   3.283  0.2682 -0.6469  1.6876
 4880TIP3    H231213   4.222   6.010   3.314  0.4557 -0.6677  1.8958
 4881TIP3   OH231214   1.911   4.848   7.615  0.0186 -0.3221 -0.2132
 4881TIP3    H131215   1.868   4.824   7.533 -1.4575  1.2062  0.0526
 4881TIP3    H231216   1.840   4.883   7.669  1.4104  1.2636  0.6627
 4882TIP3   OH231217   2.818   5.455   8.291  0.7248 -0.1252  0.5782
 4882TIP3    H131218   2.839   5.368   8.327 -1.1565 -1.6134 -1.6473
 4882TIP3    H231219   2.904   5.495   8.275  1.6708 -1.8764  0.9625
 4883TIP3   OH231220   1.423   6.377   7.484 -0.2271 -0.1809  0.3594
 4883TIP3    H131221   1.399   6.403   7.395  0.7251 -0.8655 -0.1138
 4883TIP3    H231222   1.447   6.459   7.528 -2.9540  0.4896  0.7509
 4884TIP3   OH231223   1.563   2.280   1.228 -0.0089  0.3898 -0.0547
 4884TIP3    H131224   1.516   2.206   1.188 -1.5327  0.9473  0.6058
 4884TIP3    H231225   1.617   2.315   1.157  1.6727 -2.0456 -0.0693
 4885TIP3   OH231226   2.633   5.010   8.258 -0.2687  0.5219  0.6595
 4885TIP3    H131227   2.635   4.966   8.342  0.3748  0.2206  0.4925
 4885TIP3    H231228   2.543   5.042   8.249 -0.2604  0.8277  1.5933
 4886TIP3   OH231229   3.124   5.933   8.240 -0.2718  0.1447 -0.2843
 4886TIP3    H131230   3.112   6.009   8.183 -0.5619  0.6653  0.4648
 4886TIP3    H231231   3.035   5.905   8.263 -0.1563  0.0868  0.1032
 4887TIP3   OH231232   0.551   4.317   7.373  1.1465 -0.5613 -0.3049
 4887TIP3    H131233   0.572   4.288   7.284 -0.2645 -0.6384 -0.6342
 4887TIP3    H231234   0.468   4.365   7.364  1.8405  0.9085  0.7076
 4888TIP3   OH231235   0.050   5.720   8.477  0.0118  0.3520  0.5303
 4888TIP3    H131236   0.073   5.785   8.544 -2.2132  2.1664 -0.3472
 4888TIP3    H231237   0.008   5.770   8.408  0.5876 -1.7208 -1.4365
 4889TIP3   OH231238   3.944   0.158   1.047  0.2316 -0.1764  0.0921
 4889TIP3    H131239   3.876   0.147   0.981 -0.4387 -0.5454  0.8206
 4889TIP3    H231240   4.026   0.156   0.998 -0.3103  2.5137 -1.0945
 4890TIP3   OH231241   5.983   4.578   7.529  0.2200 -0.1296 -0.1713
 4890TIP3    H131242   5.962   4.651   7.471 -0.9665 -1.1549 -1.1049
 4890TIP3    H231243   5.971   4.613   7.617 -1.9509  0.4098 -0.6116
 4891TIP3   OH231244   5.335   0.836   7.329  0.4195 -0.4336  0.4334
 4891TIP3    H131245   5.346   0.845   7.234 -1.1554 -1.3785  0.1290
 4891TIP3    H231246   5.243   0.813   7.340  0.0958  1.5134  2.3443
 4892TIP3   OH231247   2.817   1.274   1.836  0.4262 -0.2497 -0.5193
 4892TIP3    H131248   2.786   1.330   1.907  0.2757 -0.6465 -0.2680
 4892TIP3    H231249   2.746   1.212   1.822  1.2009 -1.3620  0.2697
 4893TIP3   OH231250   1.052   6.368   8.586 -0.6297 -0.6381  0.3023
 4893TIP3    H131251   1.040   6.426   8.661  0.2615 -0.0219 -0.0247
 4893TIP3    H231252   0.968   6.371   8.540 -0.2808  1.2136 -0.2713
 4894TIP3   OH231253   0.960   6.426   6.493  0.0776  0.3831 -0.1722
 4894TIP3    H131254   0.889   6.474   6.535  0.6582 -0.5039  1.9307
 4894TIP3    H231255   0.927   6.405   6.406 -2.0506  0.4001  0.5946
 4895TIP3   OH231256   1.333   6.087   7.277 -0.2828  0.2972 -0.5580
 4895TIP3    H131257   1.298   6.013   7.325  1.4572 -1.0972 -1.3349
 4895TIP3    H231258   1.301   6.074   7.187  2.6157 -1.4554 -1.4824
 4896TIP3   OH231259   3.100   1.702   6.035 -0.2511 -0.1722 -0.2062
 4896TIP3    H131260   3.040   1.706   5.960 -0.8064  0.1718  0.2455
 4896TIP3    H231261   3.187   1.709   5.996 -0.4945 -0.6819 -0.8751
 4897TIP3   OH231262   2.723   2.356   3.115  0.0502 -0.2533 -0.3725
 4897TIP3    H131263   2.742   2.264   3.131 -0.3817 -0.7246 -2.2590
 4897TIP3    H231264   2.805   2.391   3.078  0.0131 -0.0560 -0.2670
 4898TIP3   OH231265   2.260   1.692   3.182  0.5352  0.1015 -0.6600
 4898TIP3    H131266   2.318   1.681   3.257  1.2649  1.0846 -1.0472
 4898TIP3    H231267   2.252   1.787   3.171 -0.9666 -0.0062 -0.7745
 4899TIP3   OH231268   2.207   2.781   8.933  0.0623  0.2998  0.1644
 4899TIP3    H131269   2.224   2.853   8.993  0.9328  0.7807 -0.6452
 4899TIP3    H231270   2.282   2.780   8.874 -1.1467  0.3847 -1.4466
 4900TIP3   OH231271   5.182   4.847   8.887 -0.0711 -0.2740  0.0548
 4900TIP3    H131272   5.123   4.918   8.912  0.4629  0.1903  0.0225
 4900TIP3    H231273   5.215   4.813   8.969  1.3505  0.9649  0.0319
 4901TIP3   OH231274   5.513   4.663   9.375  0.0208 -0.3439  0.5561
 4901TIP3    H131275   5.432   4.612   9.389  0.1808  0.0406  3.5734
 4901TIP3    H231276   5.483   4.744   9.335 -0.8183 -0.9536 -0.1125
 4902TIP3   OH231277   2.273   0.041   3.498  0.2081  0.2249  0.4689
 4902TIP3    H131278   2.283  -0.028   3.432  0.4874 -0.4638  1.2101
 4902TIP3    H231279   2.326   0.011   3.572 -0.1287  0.9637  1.0260
 4903TIP3   OH231280   4.666   6.432   2.565  0.2067 -0.4785 -0.0926
 4903TIP3    H131281   4.713   6.353   2.539  1.8408  1.0552 -2.1188
 4903TIP3    H231282   4.585   6.429   2.514  1.2688  0.1771 -1.9052
 4904TIP3   OH231283   6.233   3.870   2.917  0.4340 -0.5352  0.2045
 4904TIP3    H131284   6.317   3.836   2.885  0.4271  1.0127 -1.6106
 4904TIP3    H231285   6.256   3.936   2.981  0.6897  0.6162 -1.0284
 4905TIP3   OH231286   4.164   3.944   1.465  0.3944 -0.2655  0.4738
 4905TIP3    H131287   4.136   3.855   1.441 -0.0084  0.3870 -1.7366
 4905TIP3    H231288   4.171   3.990   1.381 -1.2041  2.3230  1.6438
 4906TIP3   OH231289   3.675   1.614   0.908  0.1297 -0.3288  0.2390
 4906TIP3    H131290   3.722   1.678   0.962  0.0663  1.3323 -1.5389
 4906TIP3    H231291   3.603   1.584   0.963 -1.2381  2.9211  0.4389
 4907TIP3   OH231292   1.606   4.020   1.699 -0.0395 -0.1155 -0.0818
 4907TIP3    H131293   1.617   4.096   1.642 -3.1208  0.1408 -0.5036
 4907TIP3    H231294   1.595   4.056   1.787  0.4475 -0.2274  0.0292
 4908TIP3   OH231295   4.799   0.137   1.467 -0.2052 -0.1685  0.0170
 4908TIP3    H131296   4.803   0.042   1.471  0.5707 -0.2324 -1.4517
 4908TIP3    H231297   4.715   0.156   1.426  0.4513 -0.3211 -1.4451
 4909TIP3   OH231298   5.414   2.777   8.089 -0.0468 -0.5562 -0.5768
 4909TIP3    H131299   5.390   2.860   8.130 -1.9222 -0.5812 -1.4929
 4909TIP3    H231300   5.456   2.727   8.158  0.5492  0.9095  0.1652
 4910TIP3   OH231301   4.389   2.615   7.310 -0.5150 -0.3720  0.1227
 4910TIP3    H131302   4.349   2.699   7.289 -1.4027 -0.4281  1.4675
 4910TIP3    H231303   4.344   2.586   7.390 -0.5039 -2.3036 -0.5108
 4911TIP3   OH231304   2.242   2.275   8.387 -0.5646 -0.6239 -1.0177
 4911TIP3    H131305   2.236   2.263   8.293 -0.5402  0.5223 -1.1771
 4911TIP3    H231306   2.319   2.331   8.399 -1.1446  0.0527 -0.3957
 4912TIP3   OH231307   4.131   2.170   1.221 -0.2375 -0.2836  0.3585
 4912TIP3    H131308   4.057   2.150   1.164 -0.6072  1.7716  0.0147
 4912TIP3    H231309   4.101   2.145   1.309 -1.2376  0.2417  0.1806
 4913TIP3   OH231310   1.271   2.385   1.861 -0.0225  0.1848 -0.5297
 4913TIP3    H131311   1.247   2.365   1.770 -1.9841  1.4227 -0.3484
 4913TIP3    H231312   1.240   2.474   1.875 -0.1942 -0.1362  1.5029
 4914TIP3   OH231313   1.298   1.643   9.025 -0.0787 -0.2359 -0.5862
 4914TIP3    H131314   1.311   1.577   8.958  1.4321 -1.5505  0.8966
 4914TIP3    H231315   1.386   1.669   9.051 -0.5515 -0.5036  1.5165
 4915TIP3   OH231316   1.528   1.225   7.458  0.0947  0.5003  0.1788
 4915TIP3    H131317   1.605   1.281   7.460 -0.0775  0.7276  0.9236
 4915TIP3    H231318   1.501   1.224   7.366 -0.5419  2.5708  0.2700
 4916TIP3   OH231319   2.628   2.842   1.866 -0.1293 -0.1612 -0.6992
 4916TIP3    H131320   2.645   2.929   1.830  0.6361 -0.4942 -1.1636
 4916TIP3    H231321   2.674   2.782   1.807  1.7893 -0.6791  1.1834
 4917TIP3   OH231322   6.398   6.116   8.603 -0.4065  0.0971 -0.2130
 4917TIP3    H131323   6.466   6.058   8.637 -0.4002  0.4886  0.4493
 4917TIP3    H231324   6.317   6.086   8.643 -0.2077  1.4187  1.3025
 4918TIP3   OH231325   0.265   0.160   9.284  0.3665 -0.4688 -0.5242
 4918TIP3    H131326   0.290   0.132   9.196  0.2288 -0.5198 -0.5483
 4918TIP3    H231327   0.283   0.083   9.339  0.7547 -0.3287 -0.4545
 4919TIP3   OH231328   5.593   1.952   9.181  0.3492 -0.0848 -0.0975
 4919TIP3    H131329   5.685   1.936   9.201  0.6635  1.3671 -0.2721
 4919TIP3    H231330   5.583   1.930   9.089  0.6086  0.0977 -0.1676
 4920TIP3   OH231331   4.669   5.767   0.945 -0.3906 -0.3041  0.0883
 4920TIP3    H131332   4.756   5.791   0.913 -0.2831  0.0898  0.6619
 4920TIP3    H231333   4.677   5.771   1.040 -1.4874  1.4613  0.1538
 4921TIP3   OH231334   2.112   0.815   0.089 -0.2623  0.0669 -0.5087
 4921TIP3    H131335   2.202   0.848   0.096  0.0514 -0.8859  0.3420
 4921TIP3    H231336   2.099   0.801  -0.005  1.0071 -1.0913 -0.5554
 4922TIP3   OH231337   3.663   1.556   8.531 -0.4538  0.4088  0.5035
 4922TIP3    H131338   3.569   1.562   8.547 -0.2756 -0.5927  2.1539
 4922TIP3    H231339   3.670   1.518   8.444 -1.5946 -0.5341  0.7970
 4923TIP3   OH231340   2.210   4.309   0.870 -0.0850  0.3518  0.1634
 4923TIP3    H131341   2.183   4.253   0.797  2.1638  0.8497 -1.1339
 4923TIP3    H231342   2.264   4.251   0.924 -1.5346  0.0569  1.3753
 4924TIP3   OH231343   0.050   6.194   0.358 -0.4952  0.1796 -0.1921
 4924TIP3    H131344   0.033   6.155   0.444  0.2768 -0.9692 -0.5318
 4924TIP3    H231345  -0.030   6.176   0.307 -0.7835  0.4847  0.1517
 4925TIP3   OH231346   2.998   5.559   1.790  0.9217 -0.0380 -0.2509
 4925TIP3    H131347   3.025   5.474   1.755  0.5373 -0.2828  0.0391
 4925TIP3    H231348   2.962   5.606   1.715 -0.8197 -0.9305 -0.0283
 4926TIP3   OH231349   1.803   3.119   1.301  0.2324 -0.2422  0.3160
 4926TIP3    H131350   1.709   3.116   1.319  0.2960  1.0871  0.9304
 4926TIP3    H231351   1.809   3.109   1.206 -0.7984  2.9336 -0.2050
 4927TIP3   OH231352   1.596   3.976   7.934  0.3354 -0.5011  0.3865
 4927TIP3    H131353   1.687   3.959   7.957  0.0782 -2.1786  0.3273
 4927TIP3    H231354   1.546   3.947   8.010 -0.2072 -0.9226 -0.1105
 4928TIP3   OH231355   0.644   5.805   1.556  0.1576  0.0281 -0.0733
 4928TIP3    H131356   0.737   5.824   1.544  0.0006  0.9110  0.0248
 4928TIP3    H231357   0.606   5.888   1.583 -0.7419 -0.2119 -0.5532
 4929TIP3   OH231358   4.219   5.360   0.540 -0.2937 -0.6168 -0.2607
 4929TIP3    H131359   4.185   5.415   0.470 -0.4450 -0.4474 -0.0544
 4929TIP3    H231360   4.185   5.273   0.521 -0.9398 -0.4281  0.0029
 4930TIP3   OH231361   6.344   3.794   0.143  0.3786 -0.6217 -0.3175
 4930TIP3    H131362   6.334   3.888   0.130  0.7593 -0.2238  1.9454
 4930TIP3    H231363   6.257   3.764   0.170  0.5377 -0.7000  0.1143
 4931TIP3   OH231364   6.024   3.150   6.259 -0.0742 -0.4220  0.2274
 4931TIP3    H131365   6.076   3.230   6.255  0.1408 -0.5937 -0.5524
 4931TIP3    H231366   6.085   3.083   6.291 -0.4270 -0.1523  1.5362
 4932TIP3   OH231367   3.068   0.607   8.999  0.1006  0.1463 -0.4373
 4932TIP3    H131368   3.151   0.603   9.046 -0.5734 -0.2330  0.7460
 4932TIP3    H231369   3.053   0.701   8.986  1.0912  0.1971 -1.3879
 4933TIP3   OH231370   1.394   3.385   7.341 -0.0607 -0.1122 -1.3854
 4933TIP3    H131371   1.371   3.295   7.318 -1.1132 -0.6187  1.2584
 4933TIP3    H231372   1.312   3.434   7.331  0.0332  0.1324 -1.0052
 4934TIP3   OH231373   1.788   5.375   2.434 -0.1399 -0.5130  0.3455
 4934TIP3    H131374   1.883   5.372   2.421 -0.1933  0.0138 -0.2128
 4934TIP3    H231375   1.770   5.305   2.497  0.4888 -1.2867 -0.3118
 4935TIP3   OH231376   4.641   5.535   7.320  0.2964  0.3871  0.1468
 4935TIP3    H131377   4.574   5.573   7.265  0.5288  1.1820  0.4019
 4935TIP3    H231378   4.719   5.530   7.265  0.0340 -0.5612 -0.1584
 4936TIP3   OH231379   4.865   4.304   0.128  0.2921  0.4457  0.4703
 4936TIP3    H131380   4.863   4.259   0.212  0.2486 -1.7572 -0.6462
 4936TIP3    H231381   4.773   4.312   0.103  0.3716 -0.5001 -0.1548
 4937TIP3   OH231382   4.266   4.830   2.362 -0.6540  0.7331 -0.4375
 4937TIP3    H131383   4.220   4.778   2.428  2.4527 -0.5167  0.9515
 4937TIP3    H231384   4.297   4.907   2.410  1.2596  0.0334 -0.4858
 4938TIP3   OH231385   0.544   4.259   2.194  0.1829 -0.1323  0.0063
 4938TIP3    H131386   0.499   4.339   2.166  1.5222  1.3833  1.8343
 4938TIP3    H231387   0.635   4.272   2.168  0.5920 -0.6280  1.1112
 4939TIP3   OH231388   6.449   0.131   9.056 -0.2467 -0.2928  0.0053
 4939TIP3    H131389   6.502   0.084   8.992  1.9999  2.2275 -0.2083
 4939TIP3    H231390   6.379   0.171   9.004 -0.2096 -0.7090 -0.3710
 4940TIP3   OH231391   3.193   4.797   0.054 -0.1109  0.2488 -0.1961
 4940TIP3    H131392   3.140   4.833  -0.017 -2.1599 -0.8853  0.6803
 4940TIP3    H231393   3.230   4.717   0.018  0.0961  0.4575 -0.4520
 4941TIP3   OH231394   3.497   0.742   2.428 -0.5204 -0.0022 -0.1573
 4941TIP3    H131395   3.442   0.755   2.506 -0.3196 -0.0096 -0.0140
 4941TIP3    H231396   3.532   0.653   2.438 -1.0167 -0.2463 -0.5864
 4942TIP3   OH231397   1.404   3.803   1.285  0.3715 -0.3717 -0.0481
 4942TIP3    H131398   1.408   3.814   1.190 -0.3260 -1.8527 -0.2891
 4942TIP3    H231399   1.482   3.847   1.318  0.3451  0.6342 -1.2466
 4943TIP3   OH231400   6.370   5.349   8.028 -0.1372  0.3915  0.5576
 4943TIP3    H131401   6.456   5.371   8.063  0.3618 -0.3620 -0.1820
 4943TIP3    H231402   6.340   5.430   7.988  0.3388  0.5899  0.5923
 4944TIP3   OH231403   1.579   0.755   2.242 -0.1296  0.4118 -0.0562
 4944TIP3    H131404   1.570   0.787   2.332 -0.7857 -2.6925  1.1259
 4944TIP3    H231405   1.667   0.718   2.238 -0.8842 -1.5651  0.1735
 4945TIP3   OH231406   4.000   2.133   9.377  0.5252  0.4909  0.4379
 4945TIP3    H131407   3.936   2.136   9.306 -0.0624 -0.0508  0.9325
 4945TIP3    H231408   3.962   2.073   9.441  1.2577  0.6205  1.0084
 4946TIP3   OH231409   3.774   5.972   7.589 -0.5238 -0.5401  0.0677
 4946TIP3    H131410   3.720   6.035   7.637 -2.2571 -2.9659  1.5167
 4946TIP3    H231411   3.775   6.004   7.499 -2.5108  0.8130  0.4750
 4947TIP3   OH231412   4.976   1.967   0.154  0.0861  0.2566 -0.1108
 4947TIP3    H131413   5.064   2.002   0.164  0.0441  0.2283  0.4142
 4947TIP3    H231414   4.978   1.883   0.199 -0.0868  0.0430 -0.4950
 4948TIP3   OH231415   6.287   1.263   1.032 -0.0203  0.5166 -0.7736
 4948TIP3    H131416   6.298   1.191   1.094 -0.2068  0.2923 -0.9983
 4948TIP3    H231417   6.233   1.327   1.079 -2.1397 -0.6589 -1.4992
 4949TIP3   OH231418   2.166   4.209   9.354  0.3935  0.0642 -0.1181
 4949TIP3    H131419   2.181   4.119   9.324 -0.0256  0.1494 -0.6055
 4949TIP3    H231420   2.201   4.264   9.284  1.5560  0.3058  0.6261
 4950TIP3   OH231421   5.563   5.941   1.310  0.1812  0.0435 -0.0757
 4950TIP3    H131422   5.563   5.905   1.399  0.8454  1.0835  0.3659
 4950TIP3    H231423   5.615   6.021   1.317 -0.4375  0.5650 -1.2342
 4951TIP3   OH231424   3.234   1.140   2.735  0.1654  0.6090 -0.3026
 4951TIP3    H131425   3.322   1.128   2.770 -0.0315  0.5029  0.1584
 4951TIP3    H231426   3.238   1.100   2.647  0.3952 -0.0039 -0.0198
 4952TIP3   OH231427   6.330   0.235   1.815 -0.8856 -0.2650 -0.0701
 4952TIP3    H131428   6.379   0.192   1.885  1.9206 -0.8710 -2.2346
 4952TIP3    H231429   6.301   0.317   1.853 -1.1924 -1.4020  2.3494
 4953TIP3   OH231430   0.444   4.459   9.148 -0.2038 -0.1924  0.1285
 4953TIP3    H131431   0.434   4.543   9.193  0.2942 -0.2890  0.4250
 4953TIP3    H231432   0.539   4.447   9.140 -0.2742  0.2377 -1.7422
 4954TIP3   OH231433   5.905   3.678   2.375 -0.0341 -0.4121 -0.1286
 4954TIP3    H131434   5.956   3.747   2.333  0.6520 -1.1956 -0.6164
 4954TIP3    H231435   5.834   3.659   2.314  0.1036 -0.5308 -0.2502
 4955TIP3   OH231436   1.745   2.718   9.387 -0.0417 -0.5239  0.3129
 4955TIP3    H131437   1.672   2.691   9.443  0.5853 -0.9286  0.9589
 4955TIP3    H231438   1.704   2.764   9.314 -0.8648  0.7849  1.5219
 4956TIP3   OH231439   1.014   4.253   8.284 -0.6531  0.1558  0.4904
 4956TIP3    H131440   0.988   4.258   8.191 -0.7207 -1.1767  0.4231
 4956TIP3    H231441   0.938   4.287   8.331 -0.8976  0.1675  0.0951
 4957TIP3   OH231442   3.380   2.672   6.658  0.3835  0.3728 -0.2341
 4957TIP3    H131443   3.408   2.609   6.592 -0.9989  0.8258 -1.3127
 4957TIP3    H231444   3.461   2.713   6.688  1.2831 -1.7237  0.3379
 4958TIP3   OH231445   3.807   3.143   8.278  0.0529 -0.7012  0.4708
 4958TIP3    H131446   3.880   3.086   8.302  0.3737 -1.0121 -1.1040
 4958TIP3    H231447   3.799   3.204   8.351 -1.0795 -3.4130  2.8159
 4959TIP3   OH231448   5.138   4.324   8.243 -0.4577 -0.2711 -0.0065
 4959TIP3    H131449   5.113   4.341   8.152  2.6397 -0.9073 -1.1118
 4959TIP3    H231450   5.153   4.410   8.281 -1.3074 -0.0133 -0.2486
 4960TIP3   OH231451   5.198   3.007   2.701  0.2239  0.1970  0.0437
 4960TIP3    H131452   5.173   2.918   2.679  1.0767 -0.3563  1.2281
 4960TIP3    H231453   5.210   3.050   2.616  0.1255 -0.9011 -0.5366
 4961TIP3   OH231454   3.950   3.498   9.409 -0.1451 -0.1741  0.0326
 4961TIP3    H131455   3.992   3.510   9.324 -1.2370 -0.3889 -0.5402
 4961TIP3    H231456   3.970   3.408   9.434  0.7386  0.0896  0.3317
 4962TIP3   OH231457   4.650   1.454   7.765 -0.3857 -0.2549  0.0816
 4962TIP3    H131458   4.620   1.515   7.832  2.1472  0.8234  0.3737
 4962TIP3    H231459   4.706   1.392   7.813  0.4921 -0.1839 -0.8152
 4963TIP3   OH231460   5.770   2.385   1.975 -0.1357 -0.6157 -0.3883
 4963TIP3    H131461   5.780   2.304   2.025 -0.6853 -0.2750  0.3092
 4963TIP3    H231462   5.752   2.451   2.042 -1.0276 -0.1706 -1.0440
 4964TIP3   OH231463   5.246   3.938   1.942  0.0557  0.0996 -0.0779
 4964TIP3    H131464   5.273   3.929   1.851  0.1798 -0.4353  0.0069
 4964TIP3    H231465   5.214   4.028   1.949 -0.7444 -0.1013 -0.8639
 4965TIP3   OH231466   1.239   1.959   7.045 -0.2171 -0.0206 -0.5091
 4965TIP3    H131467   1.173   1.945   6.978 -1.9855 -0.0191  1.1488
 4965TIP3    H231468   1.189   1.972   7.126  1.8298 -1.4474  1.0971
 4966TIP3   OH231469   3.083   4.233   0.691  0.0093  0.1732  0.0119
 4966TIP3    H131470   3.034   4.277   0.622  0.1176 -0.5381 -0.5264
 4966TIP3    H231471   3.049   4.270   0.773 -1.7975 -0.6646 -0.3128
 4967TIP3   OH231472   1.275   4.716   1.643  0.6753 -0.2529 -0.1923
 4967TIP3    H131473   1.208   4.709   1.711  1.2014 -2.4955  0.1865
 4967TIP3    H231474   1.248   4.652   1.577  1.6460 -0.1154 -0.7364
 4968TIP3   OH231475   2.796   1.606   9.101  0.0023 -0.2176  0.3347
 4968TIP3    H131476   2.818   1.525   9.056  0.3491  0.1383 -0.1414
 4968TIP3    H231477   2.879   1.653   9.111  0.3614 -1.2263  3.3081
 4969TIP3   OH231478   3.524   0.399   8.335  0.2253 -0.0979  0.2916
 4969TIP3    H131479   3.487   0.483   8.307  1.6711  0.5558  0.2497
 4969TIP3    H231480   3.499   0.391   8.427 -2.3841 -1.0427 -0.4067
 4970TIP3   OH231481   6.068   0.842   9.209 -0.4136 -0.2040  0.5297
 4970TIP3    H131482   6.025   0.766   9.247 -0.7303  0.3258  1.2720
 4970TIP3    H231483   6.004   0.879   9.148  0.8776 -2.3219 -2.3683
 4971TIP3   OH231484   4.212   3.681   9.398  0.1075  0.7065  0.4721
 4971TIP3    H131485   4.293   3.632   9.384  0.1531  1.1982 -1.3232
 4971TIP3    H231486   4.143   3.617   9.386  0.1915  0.8465 -1.0817
 4972TIP3   OH231487   1.074   3.826   7.951  0.1235  0.2972 -0.0511
 4972TIP3    H131488   1.110   3.737   7.956  0.6171  0.4372 -0.9240
 4972TIP3    H231489   1.148   3.883   7.971  0.0100  0.5337 -0.2939
 4973TIP3   OH231490   5.444   3.307   1.280 -0.1247 -0.0892  1.0043
 4973TIP3    H131491   5.466   3.356   1.359 -0.0140  1.5057  0.0273
 4973TIP3    H231492   5.353   3.331   1.262  0.1716  0.4035  0.0855
 4974TIP3   OH231493   4.399   2.189   2.188 -0.0393  0.2517 -0.2674
 4974TIP3    H131494   4.358   2.267   2.226  0.1345  0.3112 -0.2047
 4974TIP3    H231495   4.381   2.196   2.094  1.6313  1.3634 -0.5443
 4975TIP3   OH231496   4.097   2.826   1.097 -0.1167 -0.3618 -0.2150
 4975TIP3    H131497   4.072   2.769   1.170  3.5568 -1.1855  0.5964
 4975TIP3    H231498   4.115   2.911   1.138 -0.3711 -0.1216 -0.5882
 4976TIP3   OH231499   1.547   4.069   7.407  0.2335 -0.1598  0.0569
 4976TIP3    H131500   1.512   4.092   7.320  0.5227 -0.0737 -0.0364
 4976TIP3    H231501   1.567   4.153   7.448  0.4940 -0.2160  0.0451
 4977TIP3   OH231502   0.217   0.990   1.024 -0.1673  0.1169  0.4216
 4977TIP3    H131503   0.184   1.080   1.013  1.3287  0.8188  1.3124
 4977TIP3    H231504   0.157   0.936   0.973  0.2225  1.8948 -2.1154
 4978TIP3   OH231505   4.395   0.669   8.427  0.0756 -0.3527  0.1009
 4978TIP3    H131506   4.415   0.762   8.426 -0.0133 -0.2505  2.1351
 4978TIP3    H231507   4.391   0.644   8.335  3.6646  0.8464 -0.5549
 4979TIP3   OH231508   4.805   1.223   6.500 -0.2232  0.2908  0.4630
 4979TIP3    H131509   4.897   1.246   6.488 -0.1449 -1.0258 -2.1169
 4979TIP3    H231510   4.759   1.307   6.494  0.4439  0.6028 -4.1110
 4980TIP3   OH231511   2.141   3.300   6.820 -1.0816  0.2038 -0.3121
 4980TIP3    H131512   2.115   3.242   6.748 -1.5045 -0.4894  0.3728
 4980TIP3    H231513   2.132   3.388   6.785  3.4519 -0.0230 -2.7528
 4981TIP3   OH231514   0.185   2.849   1.114  0.0644 -0.4892 -0.2045
 4981TIP3    H131515   0.166   2.787   1.185  1.6786 -0.3378  0.4102
 4981TIP3    H231516   0.279   2.838   1.098  0.1779  1.0977 -0.7598
 4982TIP3   OH231517   0.564   6.221   7.327 -0.1609  0.5272 -0.2002
 4982TIP3    H131518   0.472   6.194   7.334 -0.3037  0.7180 -1.1860
 4982TIP3    H231519   0.578   6.278   7.402 -0.5985 -0.1888  0.4462
 4983TIP3   OH231520   3.275   0.584   7.919  0.0867  0.0524  0.2722
 4983TIP3    H131521   3.188   0.621   7.904  0.8098  1.0606 -1.9022
 4983TIP3    H231522   3.333   0.659   7.921  1.3041 -0.7266 -1.9004
 4984TIP3   OH231523   1.374   1.816   0.913 -0.5652  0.6377  0.1540
 4984TIP3    H131524   1.433   1.891   0.910  1.0046 -0.4867  1.4620
 4984TIP3    H231525   1.419   1.749   0.861 -0.6527 -0.2421  1.1862
 4985TIP3   OH231526   0.330   4.182   6.494 -0.2651  0.3543 -0.5092
 4985TIP3    H131527   0.265   4.180   6.424 -1.2742 -0.0957  0.4058
 4985TIP3    H231528   0.409   4.145   6.454 -1.4916 -2.2084 -0.7824
 4986TIP3   OH231529   3.379   0.309   9.136  0.0687 -0.0070 -0.2031
 4986TIP3    H131530   3.416   0.249   9.072  1.6426 -0.1705  0.7991
 4986TIP3    H231531   3.290   0.277   9.150  0.1995 -0.8646 -1.1828
 4987TIP3   OH231532   3.620   1.768   7.262  0.3391  0.0655  0.1117
 4987TIP3    H131533   3.589   1.700   7.321  1.2335 -2.0938 -1.7488
 4987TIP3    H231534   3.545   1.789   7.207  0.0222  0.7469  0.7794
 4988TIP3   OH231535   3.984   2.347   7.394  0.0449 -0.0543  0.1247
 4988TIP3    H131536   3.905   2.400   7.377  0.0289  0.0642  0.5453
 4988TIP3    H231537   3.950   2.266   7.433  0.2280  0.8042  2.2079
 4989TIP3   OH231538   4.645   4.524   1.199  0.1528 -0.0293 -0.3250
 4989TIP3    H131539   4.619   4.605   1.242 -2.3589 -0.7770 -0.2421
 4989TIP3    H231540   4.641   4.544   1.105  0.6805  0.2407 -0.2929
 4990TIP3   OH231541   4.823   5.419   2.318  0.4985 -0.5875 -0.5861
 4990TIP3    H131542   4.812   5.442   2.226 -1.5263 -0.7910 -0.4439
 4990TIP3    H231543   4.750   5.361   2.337  1.0941 -0.8629  1.0689
 4991TIP3   OH231544   4.057   3.730   1.803 -0.2042  0.3014 -0.0229
 4991TIP3    H131545   3.988   3.796   1.809 -0.3133  0.1671  0.2021
 4991TIP3    H231546   4.038   3.683   1.722  0.8240  1.6107 -1.0835
 4992TIP3   OH231547   4.076   1.759   7.295 -0.2001 -0.2333  0.3825
 4992TIP3    H131548   4.151   1.786   7.243 -0.3319  0.0730  0.3523
 4992TIP3    H231549   4.105   1.679   7.339  0.1435 -0.1167  0.3713
 4993TIP3   OH231550   1.529   1.980   7.988 -0.4427 -0.3167  0.5770
 4993TIP3    H131551   1.514   1.890   7.960  1.5854 -0.0588 -1.6600
 4993TIP3    H231552   1.489   2.034   7.920  2.8826  0.3466 -1.0722
 4994TIP3   OH231553   1.389   4.675   7.083 -0.1808 -0.3795  0.1371
 4994TIP3    H131554   1.365   4.715   7.167  0.0960  0.7079 -0.2910
 4994TIP3    H231555   1.309   4.634   7.052 -1.2169  2.0715 -0.6432
 4995TIP3   OH231556   3.587   2.847   0.664  0.3424  0.0415  0.1498
 4995TIP3    H131557   3.643   2.782   0.621 -1.3166 -0.3827 -1.4984
 4995TIP3    H231558   3.573   2.812   0.752 -0.6415 -1.9830 -0.7434
 4996TIP3   OH231559   1.640   2.352   1.950  0.3681  0.6504  0.0822
 4996TIP3    H131560   1.668   2.338   1.860 -0.4273 -0.8693  0.0426
 4996TIP3    H231561   1.683   2.434   1.976  1.5432  0.5010 -1.2729
 4997TIP3   OH231562   3.390   4.325   0.082 -0.0515  0.2504  0.2350
 4997TIP3    H131563   3.482   4.316   0.061  0.6162  0.8781  2.5820
 4997TIP3    H231564   3.372   4.419   0.073 -0.3595  0.1837  0.1427
 4998TIP3   OH231565   2.963   6.315   8.619 -0.5981  0.0978  0.2424
 4998TIP3    H131566   2.924   6.275   8.697 -0.6132 -1.8763 -0.7039
 4998TIP3    H231567   2.897   6.302   8.551  0.7626 -1.3597 -0.8818
 4999TIP3   OH231568   1.724   2.391   1.678  0.4746  0.2895  0.5183
 4999TIP3    H131569   1.788   2.320   1.677  1.1462  0.7995 -2.4208
 4999TIP3    H231570   1.777   2.470   1.668 -0.4864  0.8675 -0.0806
 5000TIP3   OH231571   2.952   6.092   2.836 -0.1763  0.7509 -0.0449
 5000TIP3    H131572   2.884   6.026   2.827 -2.1654  2.8012 -1.1189
 5000TIP3    H231573   3.022   6.063   2.778 -0.6923 -0.7437  0.0468
 5001TIP3   OH231574   3.148   0.855   9.237  0.4686  0.5805 -0.2359
 5001TIP3    H131575   3.062   0.897   9.244 -0.8245 -1.8880 -0.2483
 5001TIP3    H231576   3.138   0.774   9.287  2.5500 -0.1439 -0.9373
 5002TIP3   OH231577   6.314   4.440   2.831  0.8680 -0.0900  0.5498
 5002TIP3    H131578   6.395   4.459   2.878  1.1149 -0.6598  0.3663
 5002TIP3    H231579   6.249   4.426   2.900  0.3486  2.6407  0.7041
 5003TIP3   OH231580   3.726   5.895   2.145  0.4398  0.1876 -0.4160
 5003TIP3    H131581   3.757   5.806   2.127  1.9663  0.9910 -2.0633
 5003TIP3    H231582   3.644   5.902   2.096  1.0327  0.0966 -1.4623
 5004TIP3   OH231583   3.794   4.223   8.750 -0.0771  0.4807 -0.7821
 5004TIP3    H131584   3.760   4.232   8.661 -1.8304  3.3944  0.0580
 5004TIP3    H231585   3.863   4.288   8.757  1.3878 -1.0445 -0.5273
 5005TIP3   OH231586   1.866   1.393   0.575 -0.2926 -0.0986  0.4975
 5005TIP3    H131587   1.926   1.457   0.536 -1.7168  0.0866 -1.5235
 5005TIP3    H231588   1.900   1.308   0.549  0.5776 -0.1356  1.6615
 5006TIP3   OH231589   3.281   0.752   8.646  0.1708 -0.2620  0.5051
 5006TIP3    H131590   3.218   0.682   8.663  0.6438 -0.6606  0.6477
 5006TIP3    H231591   3.282   0.803   8.727  0.9932 -1.0264  0.9927
 5007TIP3   OH231592   1.321   1.464   8.365 -0.0866 -0.8257 -0.0023
 5007TIP3    H131593   1.349   1.396   8.303 -3.5366 -1.5625 -0.9777
 5007TIP3    H231594   1.359   1.545   8.331  1.4208 -1.7623 -0.6846
 5008TIP3   OH231595   4.465   1.574   1.066  0.4599  0.3731  0.1889
 5008TIP3    H131596   4.453   1.654   1.014 -1.5202  0.2093  0.3421
 5008TIP3    H231597   4.519   1.518   1.010 -0.0080  0.9532 -0.8859
 5009TIP3   OH231598   1.406   0.935   8.542 -0.2078  0.2502  0.4625
 5009TIP3    H131599   1.317   0.904   8.526  0.4813 -0.9565 -1.4035
 5009TIP3    H231600   1.443   0.947   8.454  0.6303  3.4163  1.1343
 5010TIP3   OH231601   5.190   3.843   8.924 -0.1612 -0.5051 -0.3118
 5010TIP3    H131602   5.124   3.814   8.987 -0.0971  1.6289  0.8633
 5010TIP3    H231603   5.269   3.855   8.976 -0.2901  2.0116 -0.5436
 5011TIP3   OH231604   4.032   0.818   7.386 -0.1883  0.0898  0.8477
 5011TIP3    H131605   3.943   0.784   7.383  0.2401 -1.1571  1.5074
 5011TIP3    H231606   4.042   0.867   7.305 -1.2548 -0.3099  0.4567
 5012TIP3   OH231607   0.145   4.563   9.192  0.1919 -0.2239  0.4768
 5012TIP3    H131608   0.106   4.591   9.109 -0.1918 -0.2643  0.6423
 5012TIP3    H231609   0.154   4.468   9.184  0.7147 -0.1564  0.2452
 5013TIP3   OH231610   5.161   0.127   6.455 -0.4041  0.6877 -0.0571
 5013TIP3    H131611   5.235   0.122   6.516 -0.4986 -0.1084  0.0076
 5013TIP3    H231612   5.152   0.220   6.436 -1.1391  1.1303  2.1022
 5014TIP3   OH231613   2.729   4.594   2.487 -0.4371 -0.6649  0.1212
 5014TIP3    H131614   2.718   4.614   2.580  1.1810  0.3700  0.1332
 5014TIP3    H231615   2.819   4.561   2.481 -0.2799 -0.0520 -1.1825
 5015TIP3   OH231616   4.911   3.417   9.150  0.4074 -0.3980 -0.1554
 5015TIP3    H131617   4.894   3.500   9.195  0.8795 -0.4707  0.1671
 5015TIP3    H231618   4.900   3.437   9.057 -1.2092 -0.3936  0.0067
 5016TIP3   OH231619   1.017   2.783   0.724 -0.1799  0.5195  0.0096
 5016TIP3    H131620   0.962   2.745   0.792  0.0164 -1.9603 -1.0921
 5016TIP3    H231621   0.955   2.809   0.655 -0.1383 -0.5696 -0.4573
 5017TIP3   OH231622   1.078   6.408   1.316 -0.2440 -0.4332  0.4087
 5017TIP3    H131623   1.152   6.467   1.301 -0.0594 -0.8049 -0.1891
 5017TIP3    H231624   1.110   6.344   1.379 -0.4888  0.1755  1.1669
 5018TIP3   OH231625   5.179   1.682   6.857 -0.6255  0.0560 -0.8790
 5018TIP3    H131626   5.201   1.770   6.888  0.0218 -0.0947 -0.8986
 5018TIP3    H231627   5.111   1.697   6.790 -0.1471  0.5836 -1.2584
 5019TIP3   OH231628   3.550   0.997   9.086  0.1039  0.3054  0.4046
 5019TIP3    H131629   3.536   0.951   9.003 -0.0894 -3.2237  2.1851
 5019TIP3    H231630   3.645   0.999   9.096  0.2992  3.0777 -0.9272
 5020TIP3   OH231631   6.152   2.899   9.354  0.0728  0.2585 -0.0344
 5020TIP3    H131632   6.060   2.887   9.378  0.5251 -0.1418  1.5666
 5020TIP3    H231633   6.162   2.852   9.271 -0.8930 -0.6441  0.3499
 5021TIP3   OH231634   0.820   5.092   3.228 -0.1178  0.0334 -0.4079
 5021TIP3    H131635   0.912   5.077   3.250 -0.1140 -0.4453 -0.7149
 5021TIP3    H231636   0.809   5.187   3.230  0.5817  0.1343 -1.1366
 5022TIP3   OH231637   5.827   4.330   9.350  0.1471 -0.6741 -0.4493
 5022TIP3    H131638   5.859   4.374   9.272 -0.4333 -2.0431 -1.5106
 5022TIP3    H231639   5.901   4.279   9.382 -0.0881 -1.4633 -1.1326
 5023TIP3   OH231640   0.443   4.793   2.182 -0.1128 -0.2133 -0.3568
 5023TIP3    H131641   0.478   4.832   2.262  0.1132  1.1383 -1.0912
 5023TIP3    H231642   0.348   4.799   2.192 -0.1723  3.1857 -1.6072
 5024TIP3   OH231643   4.209   0.598   1.522  0.8141 -0.1894 -0.6992
 5024TIP3    H131644   4.281   0.632   1.575  2.7509 -2.0957 -1.9332
 5024TIP3    H231645   4.167   0.532   1.577  0.1722  0.7047 -0.0922
 5025TIP3   OH231646   4.603   4.104   8.150  0.5710  0.4672  0.2882
 5025TIP3    H131647   4.674   4.134   8.206 -0.2424  0.9334  1.1052
 5025TIP3    H231648   4.613   4.009   8.146  1.4774  0.5703  0.0470
 5026TIP3   OH231649   6.201   0.309   0.176 -0.2905 -0.6561 -0.6834
 5026TIP3    H131650   6.194   0.215   0.159 -0.8444 -0.6733 -0.3796
 5026TIP3    H231651   6.152   0.322   0.257  1.3273 -0.3933  0.2770
 5027TIP3   OH231652   6.275   6.439   7.010  0.5495 -0.5797  0.1241
 5027TIP3    H131653   6.191   6.397   7.031  0.5689 -0.0596  1.3093
 5027TIP3    H231654   6.281   6.433   6.914 -0.6111 -1.0509  0.0576
 5028TIP3   OH231655   2.592   1.075   0.251  0.6031  1.0531 -0.1067
 5028TIP3    H131656   2.611   1.150   0.307 -0.0121 -0.2713  2.0285
 5028TIP3    H231657   2.628   1.000   0.299  0.2696 -0.1432 -1.6351
 5029TIP3   OH231658   0.959   3.169   6.367 -0.1089  0.1417 -0.0806
 5029TIP3    H131659   0.896   3.228   6.325  1.1641  0.2597 -1.9714
 5029TIP3    H231660   1.013   3.226   6.421 -0.1357  0.4240 -0.3467
 5030TIP3   OH231661   3.799   3.849   7.746  0.1697 -0.3872  0.2740
 5030TIP3    H131662   3.778   3.815   7.833 -0.8505 -1.2607 -0.3001
 5030TIP3    H231663   3.802   3.944   7.758 -1.8582 -0.3620  0.8996
 5031TIP3   OH231664   3.711   0.308   8.953  0.4877  0.3875 -0.7579
 5031TIP3    H131665   3.803   0.314   8.929  0.6049  0.5737 -0.2826
 5031TIP3    H231666   3.683   0.222   8.920  1.2059 -0.2864  0.3070
 5032TIP3   OH231667   2.160   5.134   1.038  0.3454 -0.3957  0.2762
 5032TIP3    H131668   2.093   5.066   1.033 -0.0659  0.0117  0.0389
 5032TIP3    H231669   2.213   5.122   0.959 -0.7237  0.5460 -0.6283
 5033TIP3   OH231670   4.756   1.040   6.303  1.1191 -0.0975 -0.5556
 5033TIP3    H131671   4.833   0.983   6.309  1.9161  0.8827 -1.3111
 5033TIP3    H231672   4.785   1.123   6.340 -0.2042 -0.3019  1.0600
 5034TIP3   OH231673   6.410   1.338   8.376 -0.2096  0.3882 -0.1781
 5034TIP3    H131674   6.351   1.315   8.449  1.4546 -1.0219  0.8012
 5034TIP3    H231675   6.432   1.253   8.336  1.3082  0.8517 -0.3778
 5035TIP3   OH231676   5.888   4.978   1.998 -0.2648  0.1132  0.0983
 5035TIP3    H131677   5.933   5.060   2.016  1.3763 -0.4896 -1.0699
 5035TIP3    H231678   5.888   4.931   2.082 -1.6962  1.4720  0.9096
 5036TIP3   OH231679   5.902   1.464   8.309  0.6364 -0.0740 -0.4129
 5036TIP3    H131680   5.933   1.542   8.264 -2.2880  0.4236 -1.8178
 5036TIP3    H231681   5.886   1.492   8.399 -1.3976  1.3658 -1.1485
 5037TIP3   OH231682   2.859   1.506   1.488  0.4480 -0.6071  0.1765
 5037TIP3    H131683   2.885   1.415   1.501  0.6873 -1.1305 -3.0871
 5037TIP3    H231684   2.771   1.500   1.450 -0.2247  0.6463  1.4557
 5038TIP3   OH231685   1.665   5.080   8.824  0.6858 -0.6609 -0.1346
 5038TIP3    H131686   1.601   5.060   8.756  1.4947  1.9134 -1.7621
 5038TIP3    H231687   1.645   5.169   8.851  1.9289 -0.7695  1.2554
 5039TIP3   OH231688   5.095   2.294   0.920 -0.6171 -0.1305 -0.5753
 5039TIP3    H131689   5.133   2.351   0.853  0.8483  0.1384  0.4418
 5039TIP3    H231690   5.138   2.210   0.908  1.0954  0.4101  1.1383
 5040TIP3   OH231691   0.460   5.443   8.322  0.4749  0.5221  0.4397
 5040TIP3    H131692   0.522   5.379   8.357 -0.9761 -1.5514 -0.5783
 5040TIP3    H231693   0.380   5.393   8.307 -0.4262  2.3757 -1.3532
 5041TIP3   OH231694   5.736   1.984   1.253 -0.2452 -0.3357  0.4537
 5041TIP3    H131695   5.808   2.037   1.220  0.9307 -2.6689 -1.0780
 5041TIP3    H231696   5.672   2.047   1.285  0.9708  1.9756 -1.3274
 5042TIP3   OH231697   2.644   3.111   9.286  0.1181 -0.1946  0.1022
 5042TIP3    H131698   2.666   3.153   9.369  2.0638 -0.6253 -0.1476
 5042TIP3    H231699   2.608   3.026   9.311  1.0931 -0.5007  0.5240
 5043TIP3   OH231700   0.770   4.779   0.045 -0.2777 -0.0600 -0.1264
 5043TIP3    H131701   0.740   4.706  -0.008 -0.4275 -0.2120  0.1677
 5043TIP3    H231702   0.704   4.789   0.114 -1.1532  1.4136 -1.1187
 5044TIP3   OH231703   4.204   2.731   8.378  0.1104 -0.2865  0.0029
 5044TIP3    H131704   4.284   2.756   8.332  0.7993 -2.9100 -0.3914
 5044TIP3    H231705   4.218   2.761   8.468  0.7597  0.8045 -0.4402
 5045TIP3   OH231706   2.077   0.664   8.150  0.4028 -0.9240 -0.0659
 5045TIP3    H131707   2.054   0.698   8.236 -0.5065  2.5532 -1.5230
 5045TIP3    H231708   2.171   0.679   8.143 -0.0442  1.9860 -0.8387
 5046TIP3   OH231709   5.958   3.860   2.005 -0.1680  0.0960 -0.1091
 5046TIP3    H131710   5.985   3.951   1.998  0.4698  0.0153  1.0233
 5046TIP3    H231711   5.972   3.824   1.917 -0.5729  1.1046 -0.6094
 5047TIP3   OH231712   4.141   3.089   7.492  0.8382 -0.2505 -0.3949
 5047TIP3    H131713   4.164   3.074   7.400  1.2282  0.3080 -0.3879
 5047TIP3    H231714   4.143   3.001   7.531  1.7904 -0.3622 -0.6660
 5048TIP3   OH231715   3.111   5.645   8.073  0.2848  0.5324  0.1062
 5048TIP3    H131716   3.130   5.728   8.030 -0.8276 -0.6604 -2.9459
 5048TIP3    H231717   3.153   5.579   8.018 -2.3426 -1.2004  0.0002
 5049TIP3   OH231718   4.224   0.407   3.007 -0.3240  1.1834 -0.0284
 5049TIP3    H131719   4.234   0.460   3.086  0.0952  0.4571  0.4213
 5049TIP3    H231720   4.230   0.469   2.935  1.0418  1.6434  0.4550
 5050TIP3   OH231721   5.744   5.109   2.741 -0.3260  0.3564  0.0958
 5050TIP3    H131722   5.682   5.078   2.807 -1.6672  3.0012  0.2195
 5050TIP3    H231723   5.798   5.174   2.787  2.3592 -1.5311 -0.1362
 5051TIP3   OH231724   1.831   4.816   8.052  0.6117 -0.4206 -0.5076
 5051TIP3    H131725   1.883   4.762   7.992 -0.9457 -1.2778 -1.1270
 5051TIP3    H231726   1.753   4.838   8.003  0.3078  0.7294  0.4591
 5052TIP3   OH231727   6.413   2.468   7.034  0.4276  0.1189 -0.7266
 5052TIP3    H131728   6.351   2.536   7.060  0.4164 -0.3269  0.4848
 5052TIP3    H231729   6.493   2.488   7.081  0.2088 -1.0854  0.2166
 5053TIP3   OH231730   3.662   4.505   8.398 -0.3839 -0.6753 -0.2845
 5053TIP3    H131731   3.706   4.422   8.418  0.1752 -1.4784 -4.1722
 5053TIP3    H231732   3.733   4.570   8.398 -0.0131 -1.0611 -1.6731
 5054TIP3   OH231733   5.834   5.981   1.487 -0.2853 -0.3675  0.1252
 5054TIP3    H131734   5.806   6.008   1.575  2.5129 -0.1028  1.0369
 5054TIP3    H231735   5.860   6.062   1.444  0.6511 -0.7360 -0.0285
 5055TIP3   OH231736   3.590   2.904   9.006 -0.2590 -0.3192 -0.4171
 5055TIP3    H131737   3.609   2.855   9.086 -1.3787  0.2423  0.2088
 5055TIP3    H231738   3.667   2.959   8.994 -0.1444 -0.2891  0.3647
 5056TIP3   OH231739   0.687   0.236   1.289 -0.1813  0.4532 -0.1111
 5056TIP3    H131740   0.707   0.147   1.315  1.0632  0.5834 -0.5895
 5056TIP3    H231741   0.634   0.271   1.362 -1.7719 -1.0418 -0.4907
 5057TIP3   OH231742   3.093   5.569   8.326 -0.5182 -0.0311  0.1800
 5057TIP3    H131743   3.073   5.594   8.236 -0.0643  1.2624  0.4171
 5057TIP3    H231744   3.188   5.561   8.328 -0.5495 -0.3175  0.4766
 5058TIP3   OH231745   5.164   0.874   1.797  0.2029 -0.2460 -0.5244
 5058TIP3    H131746   5.193   0.799   1.849  0.8196 -1.1827 -2.1394
 5058TIP3    H231747   5.123   0.933   1.861  2.4651 -0.4995  1.2944
 5059TIP3   OH231748   6.273   5.149   6.485 -0.1078 -0.1669 -0.5385
 5059TIP3    H131749   6.245   5.072   6.435 -0.4783 -0.8443  0.6737
 5059TIP3    H231750   6.195   5.204   6.491 -0.7787 -1.2374  1.3432
 5060TIP3   OH231751   2.080   0.857   2.727  0.5872 -0.4171 -0.4630
 5060TIP3    H131752   2.024   0.827   2.655 -0.2377 -0.8254  0.3236
 5060TIP3    H231753   2.025   0.916   2.778  1.1645 -0.1193 -0.1719
 5061TIP3   OH231754   5.640   5.787   8.974 -0.3454 -0.3813  0.2103
 5061TIP3    H131755   5.723   5.834   8.986 -0.6774  0.0035  1.0375
 5061TIP3    H231756   5.643   5.757   8.883  0.4669  0.0797  0.0723
 5062TIP3   OH231757   4.353   0.917   2.381 -0.1098 -0.4686 -0.0714
 5062TIP3    H131758   4.424   0.968   2.419  1.1364 -1.7671 -0.5549
 5062TIP3    H231759   4.381   0.826   2.389 -1.8343 -1.0400 -0.0754
 5063TIP3   OH231760   1.091   4.677   7.309  0.4096 -0.1175 -0.1251
 5063TIP3    H131761   1.052   4.711   7.228 -1.9060  1.6089  1.5551
 5063TIP3    H231762   1.031   4.608   7.337 -0.2022  0.9473  1.2947
 5064TIP3   OH231763   2.869   0.424   2.083  0.1328 -0.1316 -0.3266
 5064TIP3    H131764   2.926   0.457   2.013  1.8711 -1.3295  0.4586
 5064TIP3    H231765   2.926   0.370   2.138 -1.9139 -2.0061  0.1271
 5065TIP3   OH231766   2.019   5.140   2.058  0.2467  0.2643  0.4751
 5065TIP3    H131767   2.107   5.163   2.030 -0.6510  1.9877 -1.1455
 5065TIP3    H231768   1.971   5.223   2.059 -1.6830 -0.7770  0.0489
 5066TIP3   OH231769   5.870   1.557   8.563  0.0746  0.0111  0.0496
 5066TIP3    H131770   5.964   1.574   8.561 -0.1856  1.7494  1.0898
 5066TIP3    H231771   5.830   1.642   8.549 -1.3884 -0.8896 -1.6979
 5067TIP3   OH231772   1.070   3.287   6.633 -0.4247 -0.0508  0.9834
 5067TIP3    H131773   1.144   3.335   6.594 -0.1513 -0.6753  0.7327
 5067TIP3    H231774   1.003   3.355   6.647  0.0873  0.4721  0.9579
 5068TIP3   OH231775   3.843   4.190   9.034 -0.1097 -0.1155  0.0561
 5068TIP3    H131776   3.844   4.164   8.942 -0.6111 -2.6494  0.6952
 5068TIP3    H231777   3.852   4.286   9.032 -1.2066  0.0225 -2.6562
 5069TIP3   OH231778   4.621   2.315   9.214  0.0697  1.1104 -0.0230
 5069TIP3    H131779   4.647   2.302   9.123 -0.2741  0.6396 -0.0629
 5069TIP3    H231780   4.560   2.243   9.232  0.4771  0.9337  0.7149
 5070TIP3   OH231781   5.945   4.182   2.020  0.0521 -0.0753  0.6481
 5070TIP3    H131782   5.927   4.276   2.030 -0.6527 -0.1919  0.4822
 5070TIP3    H231783   5.909   4.142   2.099 -1.9635 -0.5069 -0.4168
 5071TIP3   OH231784   4.459   1.961   0.217 -0.7656  0.6567  0.1098
 5071TIP3    H131785   4.541   1.927   0.181 -0.7534  1.6977 -0.9303
 5071TIP3    H231786   4.476   1.969   0.311 -0.6136 -1.6417  0.3194
 5072TIP3   OH231787   0.948   6.305   2.700  0.3621  0.0154 -0.5606
 5072TIP3    H131788   0.959   6.231   2.639 -0.9506 -1.2033  0.6065
 5072TIP3    H231789   0.989   6.275   2.781  0.4401  0.8655 -0.2752
 5073TIP3   OH231790   4.734   5.793   9.302  0.3773  0.4943  0.0649
 5073TIP3    H131791   4.645   5.825   9.318  0.9341  2.7138 -0.8247
 5073TIP3    H231792   4.757   5.746   9.382 -0.8401  1.7203  1.2123
 5074TIP3   OH231793   3.472   6.352   6.687 -0.2892 -0.3845 -0.2154
 5074TIP3    H131794   3.463   6.446   6.704 -2.3305 -0.4968 -0.4368
 5074TIP3    H231795   3.537   6.322   6.750 -0.7944  0.8861  0.9533
 5075TIP3   OH231796   2.249   1.627   7.171 -0.4234 -0.3889 -0.3953
 5075TIP3    H131797   2.334   1.645   7.211 -0.4866  2.6995 -1.3884
 5075TIP3    H231798   2.203   1.711   7.173 -1.4289 -0.6313 -4.4558
 5076TIP3   OH231799   4.868   6.334   6.340  0.0422  0.2300 -0.4505
 5076TIP3    H131800   4.778   6.301   6.338  0.9544 -2.4044 -1.6233
 5076TIP3    H231801   4.858   6.429   6.332 -2.6225  0.0391 -0.3951
 5077TIP3   OH231802   2.395   0.576   1.121 -0.4944  0.3586 -0.4746
 5077TIP3    H131803   2.338   0.651   1.110 -2.6475 -0.9614  1.0325
 5077TIP3    H231804   2.342   0.501   1.095  0.3653 -0.9785  1.3886
 5078TIP3   OH231805   0.341   2.799   1.736  0.2707 -0.3152  0.1989
 5078TIP3    H131806   0.382   2.764   1.658  0.1934 -0.0819  0.0532
 5078TIP3    H231807   0.247   2.788   1.721  0.2905 -1.4500  0.8099
 5079TIP3   OH231808   4.772   1.708   8.458  0.4425  0.3033  0.4224
 5079TIP3    H131809   4.720   1.767   8.404  0.6352  1.3593  1.3638
 5079TIP3    H231810   4.855   1.699   8.410 -0.1778 -0.5521 -0.5492
 5080TIP3   OH231811   3.891   5.579   0.045 -0.2859 -0.5560  0.4480
 5080TIP3    H131812   3.858   5.492   0.063 -0.4943 -0.4855  0.4024
 5080TIP3    H231813   3.863   5.599  -0.044  0.0542 -0.5795  0.3339
 5081TIP3   OH231814   4.077   0.043   3.110  0.6572 -0.0464 -0.3300
 5081TIP3    H131815   4.169   0.064   3.125  0.4608  0.3682  0.3216
 5081TIP3    H231816   4.037   0.041   3.197 -0.2153  1.0769 -0.6678
 5082TIP3   OH231817   2.958   0.123   1.276  0.7923 -0.4130  0.0452
 5082TIP3    H131818   2.920   0.103   1.361 -0.1518 -1.2313 -0.5383
 5082TIP3    H231819   3.041   0.167   1.295  0.5195 -0.4521  1.3681
 5083TIP3   OH231820   4.363   5.566   9.014  0.5076 -0.2790 -0.2610
 5083TIP3    H131821   4.336   5.633   9.077 -0.3246 -0.2161 -0.6717
 5083TIP3    H231822   4.439   5.603   8.970  0.8442 -0.1504  0.4167
 5084TIP3   OH231823   4.066   6.405   8.859  0.4590 -0.1520  0.1853
 5084TIP3    H131824   3.980   6.393   8.901  0.9964  2.6645  2.3742
 5084TIP3    H231825   4.127   6.416   8.932  2.3628 -0.1220 -1.3415
 5085TIP3   OH231826   1.146   0.169   0.810  0.1306 -0.1724  0.2926
 5085TIP3    H131827   1.200   0.154   0.733 -0.2617  0.1014 -0.0414
 5085TIP3    H231828   1.073   0.223   0.778  0.0200  0.0276  0.8750
 5086TIP3   OH231829   2.751   0.202   1.085  0.1359 -0.1706  0.0045
 5086TIP3    H131830   2.701   0.253   1.150  0.1633 -0.2325  0.0742
 5086TIP3    H231831   2.825   0.168   1.134 -0.1961 -0.7634  0.1007
 5087TIP3   OH231832   1.492   5.090   2.270  0.3371  0.9056 -0.1705
 5087TIP3    H131833   1.561   5.141   2.226  0.9229  0.5306  0.2872
 5087TIP3    H231834   1.443   5.049   2.199  0.5259  1.2552 -0.5080
 5088TIP3   OH231835   1.650   0.857   9.295 -0.3908 -0.1241 -0.0452
 5088TIP3    H131836   1.605   0.779   9.328  0.0083  0.3042  1.6014
 5088TIP3    H231837   1.681   0.832   9.208 -1.6063 -1.2664 -0.1854
 5089TIP3   OH231838   3.403   1.778   1.485 -0.0457  0.0606 -0.0350
 5089TIP3    H131839   3.359   1.693   1.490  0.6663 -0.2495  1.7077
 5089TIP3    H231840   3.344   1.838   1.529 -0.4248  0.4394 -1.0322
 5090TIP3   OH231841   3.195   4.895   8.217  0.0972 -0.2993 -0.0310
 5090TIP3    H131842   3.206   4.814   8.267  0.9531  0.0593  0.3802
 5090TIP3    H231843   3.220   4.965   8.278  2.5875  0.0630 -1.3576
 5091TIP3   OH231844   3.135   0.274   8.745 -0.1194 -0.3018  0.0613
 5091TIP3    H131845   3.042   0.252   8.738 -0.4159  0.9363 -0.1274
 5091TIP3    H231846   3.173   0.244   8.662 -0.1819 -1.5167  0.4560
 5092TIP3   OH231847   1.810   4.160   1.867  0.4127  0.5297  0.3998
 5092TIP3    H131848   1.760   4.239   1.888 -1.2313 -0.5892  0.8910
 5092TIP3    H231849   1.842   4.129   1.951 -0.8748 -0.5451  0.5129
 5093TIP3   OH231850   6.289   3.449   8.545  0.1498 -0.0156  0.8931
 5093TIP3    H131851   6.357   3.495   8.495  0.7880  0.3520  2.0598
 5093TIP3    H231852   6.329   3.365   8.568 -0.1737 -0.2220  0.6951
 5094TIP3   OH231853   2.101   0.231   7.232  0.0494 -0.0172  0.5651
 5094TIP3    H131854   2.015   0.201   7.201 -0.5306  0.0325  2.0315
 5094TIP3    H231855   2.104   0.324   7.208 -0.3489  0.0046  0.5936
 5095TIP3   OH231856   0.760   5.167   6.650 -0.2194  0.3680  0.1435
 5095TIP3    H131857   0.781   5.227   6.579 -0.3608  0.3289  0.0692
 5095TIP3    H231858   0.802   5.084   6.625  0.7899  0.6867  0.7000
 5096TIP3   OH231859   5.411   0.356   1.577 -0.6732 -0.5045  0.5499
 5096TIP3    H131860   5.343   0.408   1.535 -1.8801 -2.5895 -0.2419
 5096TIP3    H231861   5.427   0.400   1.661 -0.4867  1.9478 -0.6949
 5097TIP3   OH231862   2.558   5.333   8.586 -0.2047  0.3281 -0.0266
 5097TIP3    H131863   2.633   5.305   8.639 -0.8807  1.7361  1.7639
 5097TIP3    H231864   2.531   5.253   8.540  1.3895 -0.5832  0.5072
 5098TIP3   OH231865   3.275   5.265   7.480  0.1803 -0.4983  0.4138
 5098TIP3    H131866   3.310   5.282   7.568 -2.2172  1.3495  1.0927
 5098TIP3    H231867   3.327   5.321   7.423  0.3737 -0.1145  0.9522
 5099TIP3   OH231868   3.989   4.779   7.964 -0.3659 -0.4511  0.0710
 5099TIP3    H131869   4.035   4.851   7.920  2.5901 -1.6616  0.9030
 5099TIP3    H231870   3.928   4.822   8.024  1.4572  1.4172  0.7014
 5100TIP3   OH231871   0.090   5.659   9.287  0.3751  0.4861 -0.0413
 5100TIP3    H131872   0.159   5.596   9.310  0.4751  0.6046 -0.0171
 5100TIP3    H231873   0.135   5.743   9.283  0.6739  0.3018 -1.9831
 5101TIP3   OH231874   4.427   1.235   8.612 -0.6503  0.3333  0.2703
 5101TIP3    H131875   4.406   1.281   8.531 -0.4782  0.5198  0.3295
 5101TIP3    H231876   4.497   1.174   8.587 -0.2420  0.7483  0.3831
 5102TIP3   OH231877   3.901   6.256   0.230  0.5085 -0.1978  0.0706
 5102TIP3    H131878   3.865   6.177   0.272  0.3741 -0.2659 -0.1716
 5102TIP3    H231879   3.829   6.291   0.178  1.2280 -1.2494 -1.7346
 5103TIP3   OH231880   4.557   2.881   8.470 -0.5424 -0.4615 -0.3349
 5103TIP3    H131881   4.474   2.877   8.517 -0.5545  1.4202 -0.1473
 5103TIP3    H231882   4.535   2.921   8.386  0.2419  0.5602 -0.0741
 5104TIP3   OH231883   5.863   3.063   6.968 -0.0787 -0.4582 -0.8531
 5104TIP3    H131884   5.925   3.112   6.915 -0.4764  0.6552 -0.3128
 5104TIP3    H231885   5.913   3.041   7.047 -0.8560  2.0910  0.4443
 5105TIP3   OH231886   5.076   0.316   8.503 -0.4866  0.6229 -0.6587
 5105TIP3    H131887   5.076   0.224   8.530 -0.1380  0.4335 -1.2854
 5105TIP3    H231888   5.130   0.359   8.569 -0.3562  0.3208 -0.5626
 5106TIP3   OH231889   0.715   3.735   2.572 -0.1964 -0.1436 -0.2772
 5106TIP3    H131890   0.703   3.816   2.621 -1.4276 -1.1412  1.1605
 5106TIP3    H231891   0.639   3.682   2.594  0.3586 -1.5254 -1.5328
 5107TIP3   OH231892   4.822   6.036   2.283 -0.0849 -0.0650  0.0578
 5107TIP3    H131893   4.857   6.112   2.237  0.4045 -0.1141  0.3499
 5107TIP3    H231894   4.728   6.038   2.264 -0.3115  1.3877  1.1822
 5108TIP3   OH231895   3.943   3.829   0.752 -0.0416  0.6749 -0.3103
 5108TIP3    H131896   3.870   3.807   0.810  0.1073 -3.8355 -1.4136
 5108TIP3    H231897   3.902   3.862   0.673 -0.6897  0.6540  0.0121
 5109TIP3   OH231898   1.031   1.695   7.012  0.6178  0.3912  0.2520
 5109TIP3    H131899   1.031   1.601   7.029  1.9174  0.4801  0.8779
 5109TIP3    H231900   1.048   1.734   7.098 -3.0129  1.3946  0.6771
 5110TIP3   OH231901   0.223   5.725   7.895 -0.1021  0.8333 -0.1656
 5110TIP3    H131902   0.233   5.749   7.988 -1.0204  5.2952 -0.9836
 5110TIP3    H231903   0.257   5.801   7.847 -3.1313  0.3962 -3.4019
 5111TIP3   OH231904   3.801   1.873   7.952 -0.1973  0.0893  0.1671
 5111TIP3    H131905   3.841   1.920   7.879 -0.5692  2.1292  1.2021
 5111TIP3    H231906   3.709   1.866   7.928  0.2806 -2.8044 -1.2873
 5112TIP3   OH231907   3.865   2.235   1.808 -0.5561  0.1546  0.3662
 5112TIP3    H131908   3.921   2.258   1.882  0.3876 -1.1305  0.0907
 5112TIP3    H231909   3.906   2.279   1.733  0.3920 -1.1627  0.0858
 5113TIP3   OH231910   0.576   6.290   6.273 -0.0373 -0.2963  0.1882
 5113TIP3    H131911   0.669   6.269   6.274 -0.2304 -1.1967  0.1728
 5113TIP3    H231912   0.533   6.208   6.248 -0.8281  0.1313  0.1034
 5114TIP3   OH231913   1.212   3.343   2.706  0.1982  0.0732  0.0757
 5114TIP3    H131914   1.156   3.311   2.777  0.0667  0.8710  0.3397
 5114TIP3    H231915   1.257   3.265   2.673 -0.0147 -0.3544  0.7944
 5115TIP3   OH231916   1.901   0.406   0.418  0.0494  0.1643  0.3405
 5115TIP3    H131917   1.985   0.363   0.402 -0.5086 -0.2519 -1.8273
 5115TIP3    H231918   1.924   0.494   0.446  1.2328  0.1437 -0.4868
 5116TIP3   OH231919   4.491   0.699   2.484 -0.2571  0.1867 -0.0452
 5116TIP3    H131920   4.568   0.707   2.541  1.1128 -0.4221 -1.7356
 5116TIP3    H231921   4.430   0.643   2.533  0.3361  0.7062  1.3350
 5117TIP3   OH231922   1.982   5.410   8.977 -0.2824 -0.8953 -0.0621
 5117TIP3    H131923   2.015   5.491   8.940 -0.6785 -1.3478 -1.4624
 5117TIP3    H231924   1.942   5.436   9.060  1.8230 -0.0686  0.7480
 5118TIP3   OH231925   5.661   5.635   1.150 -0.3135 -0.5228  0.0372
 5118TIP3    H131926   5.710   5.717   1.159 -4.1624  1.8431  2.0852
 5118TIP3    H231927   5.723   5.568   1.177  1.9896  2.1461  2.0635
 5119TIP3   OH231928   0.018   5.271   7.613 -0.2343  0.0690  0.2404
 5119TIP3    H131929   0.065   5.256   7.695  0.3057  1.1221  0.1502
 5119TIP3    H231930  -0.051   5.333   7.636 -1.2246 -1.0140  0.2498
 5120TIP3   OH231931   0.711   0.812   6.680 -0.1870  0.0705 -0.2022
 5120TIP3    H131932   0.694   0.890   6.626  0.9544  0.7225  0.3389
 5120TIP3    H231933   0.672   0.740   6.631 -1.4097  0.9976 -0.6398
 5121TIP3   OH231934   5.188   3.184   2.435  0.2575 -0.4408  1.0705
 5121TIP3    H131935   5.133   3.206   2.360 -0.8993 -2.5971  1.1868
 5121TIP3    H231936   5.170   3.252   2.499  1.5209  1.6391 -0.6452
 5122TIP3   OH231937   6.129   3.249   1.032 -0.2053 -0.1564 -0.6265
 5122TIP3    H131938   6.087   3.269   1.116  2.8548  0.9114  0.8129
 5122TIP3    H231939   6.082   3.304   0.968 -1.0902  0.8367  0.8138
 5123TIP3   OH231940   0.842   2.909   8.384 -0.4423 -0.2689  0.1409
 5123TIP3    H131941   0.869   2.847   8.451  2.5855 -0.9787 -1.5378
 5123TIP3    H231942   0.824   2.854   8.307  1.1542  0.7676 -1.0368
 5124TIP3   OH231943   0.132   3.090   9.072  0.3155  0.4591 -0.4888
 5124TIP3    H131944   0.088   3.036   9.138  0.0457  0.1096 -0.9448
 5124TIP3    H231945   0.226   3.080   9.092  0.2688 -0.1598 -0.5484
 5125TIP3   OH231946   3.963   1.134   7.564  0.3449 -1.2702 -0.2126
 5125TIP3    H131947   4.031   1.067   7.572  1.0034 -0.6426 -0.3832
 5125TIP3    H231948   4.002   1.200   7.506  0.2581 -0.0654  1.0558
 5126TIP3   OH231949   0.068   5.843   1.096 -0.0372 -1.3789  0.0603
 5126TIP3    H131950   0.073   5.938   1.103 -0.8900 -1.2626 -0.6341
 5126TIP3    H231951  -0.008   5.819   1.148 -1.0666 -1.4395 -1.4236
 5127TIP3   OH231952   1.375   5.241   2.512  0.1613 -0.8112  0.0828
 5127TIP3    H131953   1.369   5.164   2.568  0.0424 -1.6752 -1.0643
 5127TIP3    H231954   1.414   5.208   2.431 -1.7458 -0.1293 -1.1915
 5128TIP3   OH231955   2.885   3.782   7.034 -0.2357 -0.1199 -0.3440
 5128TIP3    H131956   2.915   3.865   7.073  0.3520 -0.6538  0.3775
 5128TIP3    H231957   2.844   3.808   6.952 -1.8711  1.1040  0.7745
 5129TIP3   OH231958   5.823   0.238   1.254  0.6362  0.0286  0.0037
 5129TIP3    H131959   5.919   0.237   1.253  0.6511  0.6985  0.3998
 5129TIP3    H231960   5.801   0.275   1.340  0.0127 -2.2050  0.8799
 5130TIP3   OH231961   4.837   1.572   8.700 -0.4186 -0.1777  0.9344
 5130TIP3    H131962   4.774   1.541   8.766 -0.2977  2.6130  2.5250
 5130TIP3    H231963   4.782   1.610   8.631 -0.5258 -0.3510  0.9247
 5131TIP3   OH231964   0.887   1.073   7.931  0.6727  0.2995  0.0043
 5131TIP3    H131965   0.960   1.082   7.870 -1.1439  3.2545 -2.0546
 5131TIP3    H231966   0.845   0.991   7.907  2.6384 -0.9576  0.5872
 5132TIP3   OH231967   6.066   4.541   7.199 -0.0098 -0.0151  0.0086
 5132TIP3    H131968   6.097   4.594   7.126  0.8272  1.2812  1.2406
 5132TIP3    H231969   6.143   4.490   7.226 -0.6272 -1.4124 -0.7283
 5133TIP3   OH231970   0.871   4.229   8.917  0.3609  0.3369  0.0272
 5133TIP3    H131971   0.809   4.291   8.955 -0.8032 -0.1933 -0.9495
 5133TIP3    H231972   0.862   4.151   8.971 -0.5513 -0.0704 -0.6958
 5134TIP3   OH231973   3.773   3.584   2.104 -0.2660  0.4066 -0.1403
 5134TIP3    H131974   3.811   3.602   2.190  1.0364 -1.1729 -0.3316
 5134TIP3    H231975   3.718   3.660   2.085  0.3183  1.3015  1.5843
 5135TIP3   OH231976   1.290   1.200   1.228  0.6328  0.0068  0.1050
 5135TIP3    H131977   1.315   1.261   1.297  1.5470  1.5383 -1.5122
 5135TIP3    H231978   1.371   1.180   1.183 -0.1687  0.4617 -1.6302
 5136TIP3   OH231979   5.960   1.856   8.262 -0.0818  0.4445  0.7691
 5136TIP3    H131980   5.880   1.809   8.240 -0.6473  0.5447  2.4524
 5136TIP3    H231981   5.966   1.925   8.197 -1.2177  0.2611  0.4484
 5137TIP3   OH231982   5.732   0.105   7.910  0.0903  0.9419 -0.4004
 5137TIP3    H131983   5.742   0.090   8.004  0.0873 -0.7626 -0.6300
 5137TIP3    H231984   5.696   0.193   7.903 -0.2508  0.9613  1.2050
 5138TIP3   OH231985   2.670   2.098   2.093  0.0234 -0.5679  0.2154
 5138TIP3    H131986   2.746   2.066   2.046  1.0963  1.1027  0.7112
 5138TIP3    H231987   2.595   2.070   2.040  0.9931 -1.8820 -0.5013
 5139TIP3   OH231988   6.390   1.486   1.650 -0.0712  0.4537 -0.0112
 5139TIP3    H131989   6.407   1.454   1.739  1.5035  1.3303  0.0223
 5139TIP3    H231990   6.428   1.419   1.593 -1.3868 -0.2858 -0.0762
 5140TIP3   OH231991   2.961   3.702   8.131 -0.1849  0.3941  0.0224
 5140TIP3    H131992   2.962   3.611   8.160  0.3253  0.0393 -1.0161
 5140TIP3    H231993   2.986   3.753   8.208  0.1455 -0.4065  0.4549
 5141TIP3   OH231994   5.560   5.058   7.946  0.0068 -0.0653 -0.2957
 5141TIP3    H131995   5.601   5.142   7.926 -1.9024  1.4689  1.6726
 5141TIP3    H231996   5.612   5.021   8.018 -1.0445  1.1336  1.1467
 5142TIP3   OH231997   4.157   2.980   3.100  0.3425  0.6711  0.1851
 5142TIP3    H131998   4.107   2.942   3.172  0.7770  0.2426  0.2710
 5142TIP3    H231999   4.235   3.017   3.141  0.6671  0.2881 -0.0704
 5143TIP3   OH232000   4.589   5.603   8.851  0.1165 -0.6187 -0.6210
 5143TIP3    H132001   4.684   5.612   8.854  0.0942 -0.6979  0.6033
 5143TIP3    H232002   4.555   5.692   8.855  0.0913 -0.6854  2.5102
 5144TIP3   OH232003   0.839   2.461   7.406  0.1126  0.1032 -0.6092
 5144TIP3    H132004   0.913   2.417   7.362 -1.5149 -0.4090 -3.0327
 5144TIP3    H232005   0.763   2.438   7.353 -2.1468 -0.8335  2.7749
 5145TIP3   OH232006   3.264   1.579   6.363  0.5743 -0.0856 -0.2175
 5145TIP3    H132007   3.261   1.583   6.268 -0.8817  1.0043 -0.1737
 5145TIP3    H232008   3.299   1.664   6.389  0.0447  0.0115  0.2149
 5146TIP3   OH232009   2.258   2.850   7.581 -0.4789  0.6304 -0.3773
 5146TIP3    H132010   2.326   2.783   7.584 -0.7333  0.3987  0.4019
 5146TIP3    H232011   2.203   2.832   7.657  0.7873  3.1329  1.2849
 5147TIP3   OH232012   4.687   0.443   0.617 -0.0593  0.0924 -0.5234
 5147TIP3    H132013   4.616   0.380   0.633  1.1270 -1.4944 -1.1878
 5147TIP3    H232014   4.655   0.525   0.652 -2.1686 -0.6155 -0.6570
 5148TIP3   OH232015   2.914   1.150   7.450  0.8366  0.5168 -0.0292
 5148TIP3    H132016   2.910   1.066   7.497  1.4859  0.2832 -0.3863
 5148TIP3    H232017   2.857   1.137   7.374  1.0605  0.3442 -0.1688
 5149TIP3   OH232018   0.689   0.845   2.024  0.0815  0.7852 -0.4607
 5149TIP3    H132019   0.675   0.750   2.024  0.7240  0.6635 -1.7921
 5149TIP3    H232020   0.601   0.883   2.032 -0.2316  0.0774 -0.4842
 5150TIP3   OH232021   3.851   1.064   1.212  0.2564 -0.5368 -0.5530
 5150TIP3    H132022   3.779   1.102   1.162 -0.9133  0.1451  1.5269
 5150TIP3    H232023   3.928   1.114   1.186 -0.3584 -0.0330 -1.4472
 5151TIP3   OH232024   5.046   2.828   7.597  0.0894 -0.8643 -0.0765
 5151TIP3    H132025   5.031   2.736   7.572 -1.3576 -0.1267 -2.2424
 5151TIP3    H232026   4.962   2.871   7.581  0.7717  0.8938  0.7846
 5152TIP3   OH232027   2.603   6.417   8.675 -0.3374 -1.1167 -0.7219
 5152TIP3    H132028   2.666   6.410   8.603  1.8565 -0.2939  0.9994
 5152TIP3    H232029   2.560   6.502   8.661  2.5917  0.7776  0.6698
 5153TIP3   OH232030   5.630   3.785   8.715 -0.3107  0.2701 -0.6986
 5153TIP3    H132031   5.558   3.838   8.682  0.1378  0.6453 -1.0900
 5153TIP3    H232032   5.664   3.834   8.790  0.0874  0.5207 -1.0440
 5154TIP3   OH232033   6.078   4.143   3.167  0.4545 -0.3222  0.0955
 5154TIP3    H132034   6.038   4.056   3.173  1.3963 -0.7227  0.9844
 5154TIP3    H232035   6.162   4.128   3.123  0.6814  0.1005  0.3728
 5155TIP3   OH232036   5.091   2.405   0.089 -0.4571  0.3552  0.1232
 5155TIP3    H132037   5.008   2.418   0.044 -0.0891 -1.0100 -1.0550
 5155TIP3    H232038   5.080   2.323   0.136  0.3733 -0.1095 -0.4682
 5156TIP3   OH232039   3.807   6.013   0.324 -0.3382 -0.7140  0.8979
 5156TIP3    H132040   3.713   6.021   0.313 -0.5019 -0.0386  2.5438
 5156TIP3    H232041   3.832   5.944   0.262 -1.6063  0.2879 -0.8343
 5157TIP3   OH232042   5.895   5.861   9.067  0.8267 -0.4633 -0.2753
 5157TIP3    H132043   5.978   5.894   9.033  1.3491 -0.8589  0.5969
 5157TIP3    H232044   5.918   5.811   9.145 -0.2640 -0.2614  0.2037
 5158TIP3   OH232045   1.050   0.356   6.776 -0.3989  0.5727 -0.6285
 5158TIP3    H132046   1.090   0.269   6.783 -0.2289  0.7518  1.3249
 5158TIP3    H232047   1.104   0.412   6.832  0.1010  2.2107 -2.6470
 5159TIP3   OH232048   3.791   1.181   0.824 -0.1703 -0.5786 -0.3974
 5159TIP3    H132049   3.700   1.162   0.849  0.1737 -1.6187  0.1405
 5159TIP3    H232050   3.790   1.273   0.799 -1.7595 -1.0016 -2.1929
 5160TIP3   OH232051   4.605   5.782   1.547  0.2907  0.0061  0.2954
 5160TIP3    H132052   4.566   5.697   1.566 -0.7258 -0.1771 -2.1378
 5160TIP3    H232053   4.587   5.795   1.454  1.6432  2.2707  0.2916
 5161TIP3   OH232054   2.594   3.004   7.535  0.2357  0.6072  0.7298
 5161TIP3    H132055   2.559   2.966   7.454  1.4939  0.6546  0.1383
 5161TIP3    H232056   2.589   3.098   7.522  1.2637  0.6174  0.3138
 5162TIP3   OH232057   4.541   3.962   2.192  0.2624 -0.1666  0.8505
 5162TIP3    H132058   4.519   3.870   2.210  1.0510 -0.6227 -0.3372
 5162TIP3    H232059   4.524   3.972   2.098 -0.5880  1.1488  1.1191
 5163TIP3   OH232060   2.796   1.658   7.477  0.4410 -0.4202 -0.6214
 5163TIP3    H132061   2.770   1.740   7.436 -1.3411 -0.3719  0.4747
 5163TIP3    H232062   2.720   1.600   7.463  0.7173 -1.1151  0.6136
 5164TIP3   OH232063   5.804   3.370   6.272 -0.0194  0.0375 -0.0643
 5164TIP3    H132064   5.788   3.464   6.270  0.8606  0.1852 -1.6169
 5164TIP3    H232065   5.895   3.361   6.243 -0.5335 -1.3714 -1.3410
 5165TIP3   OH232066   2.557   5.046   1.632 -0.3666  0.1191 -0.0904
 5165TIP3    H132067   2.558   4.957   1.597  0.8112  0.6963 -1.6286
 5165TIP3    H232068   2.464   5.063   1.652 -0.3709 -2.2566  2.5780
 5166TIP3   OH232069   0.285   1.854   1.154  0.4424 -0.2367 -0.1351
 5166TIP3    H132070   0.197   1.821   1.171  1.1755 -1.3287  1.9600
 5166TIP3    H232071   0.279   1.948   1.166 -0.4463 -0.3027 -0.0100
 5167TIP3   OH232072   4.442   3.796   8.599 -0.9750 -0.4705 -0.4083
 5167TIP3    H132073   4.481   3.711   8.580 -0.1568 -0.8045  2.3109
 5167TIP3    H232074   4.391   3.782   8.679 -1.3254  1.4565 -0.2421
 5168TIP3   OH232075   3.653   2.013   7.509 -0.2422  0.4131 -0.6198
 5168TIP3    H132076   3.563   1.989   7.527  0.1560  0.5076  1.7098
 5168TIP3    H232077   3.666   2.095   7.556  1.9978 -1.3040  2.0337
 5169TIP3   OH232078   0.535   4.479   8.824  0.5846 -0.7304  0.4508
 5169TIP3    H132079   0.525   4.398   8.773  0.7709 -0.7542  0.4538
 5169TIP3    H232080   0.450   4.522   8.816  0.0711 -1.5283  1.4912
 5170TIP3   OH232081   1.408   3.067   8.794 -0.3801  0.3221 -0.1631
 5170TIP3    H132082   1.455   3.149   8.806  0.4675 -0.2861  0.8499
 5170TIP3    H232083   1.397   3.032   8.882 -2.3395  0.2051 -0.4177
 5171TIP3   OH232084   3.722   3.751   1.610  0.3035 -0.0162 -0.2615
 5171TIP3    H132085   3.786   3.818   1.589  0.0646 -0.3307 -2.1530
 5171TIP3    H232086   3.637   3.793   1.598  0.1352 -0.8276 -2.3317
 5172TIP3   OH232087   1.821   5.556   1.205  0.1547 -0.7639 -0.5272
 5172TIP3    H132088   1.756   5.626   1.215 -0.0065 -0.9120 -0.5259
 5172TIP3    H232089   1.905   5.600   1.214  0.1023 -1.1002  3.3891
 5173TIP3   OH232090   0.820   0.103   0.894  0.0183  0.4302  0.1942
 5173TIP3    H132091   0.910   0.135   0.888  0.3872 -0.6334 -0.0321
 5173TIP3    H232092   0.810   0.045   0.819 -1.1831  1.3078 -0.3615
 5174TIP3   OH232093   5.108   5.186   7.507  0.6644  0.6769  0.2598
 5174TIP3    H132094   5.106   5.193   7.411  0.6140 -0.6603  0.1429
 5174TIP3    H232095   5.201   5.193   7.529  0.6194  1.6605  0.1896
 5175TIP3   OH232096   6.146   2.947   2.880  0.9122 -0.2553  0.1437
 5175TIP3    H132097   6.238   2.973   2.876  0.3757  2.1460  1.5880
 5175TIP3    H232098   6.100   3.018   2.837 -0.3673 -0.8751  0.4580
 5176TIP3   OH232099   0.188   6.205   6.494 -0.0486 -0.1041  0.0441
 5176TIP3    H132100   0.129   6.239   6.561 -0.6137 -0.5061 -0.2489
 5176TIP3    H232101   0.234   6.283   6.461  0.1567  0.1088  0.8143
 5177TIP3   OH232102   6.363   6.353   8.782  0.1235  0.6439 -0.0198
 5177TIP3    H132103   6.300   6.415   8.746  0.0943 -0.0422 -1.1886
 5177TIP3    H232104   6.360   6.277   8.724  0.2324 -0.4383  1.3118
 5178TIP3   OH232105   3.159   3.843   0.090  0.0748 -0.1865 -0.4033
 5178TIP3    H132106   3.109   3.778   0.041 -0.6155 -1.8173  2.2653
 5178TIP3    H232107   3.177   3.801   0.174  1.5001  2.2979  0.6356
 5179TIP3   OH232108  -0.016   1.119   8.159 -0.6237 -0.1687 -0.4933
 5179TIP3    H132109   0.005   1.064   8.235  0.6458  2.1632  0.9641
 5179TIP3    H232110   0.040   1.087   8.089 -0.4577 -1.1981  0.0999
 5180TIP3   OH232111   5.758   4.812   1.822 -0.5738 -0.9585  0.5807
 5180TIP3    H132112   5.668   4.784   1.838 -0.5205 -0.6375  1.5021
 5180TIP3    H232113   5.779   4.870   1.896  0.0263 -0.1800 -0.1746
 5181TIP3   OH232114   5.659   3.284   2.492  0.3838  0.1942 -0.5727
 5181TIP3    H132115   5.614   3.348   2.437 -0.5517 -0.0938 -0.1629
 5181TIP3    H232116   5.626   3.300   2.580 -0.2568 -1.1800 -0.5419
 5182TIP3   OH232117   3.127   2.554   1.656 -0.1908 -0.4893  0.0191
 5182TIP3    H132118   3.219   2.542   1.631 -0.2747  0.0935 -0.5736
 5182TIP3    H232119   3.110   2.482   1.716  1.4567  0.9033  2.3379
 5183TIP3   OH232120   0.076   3.749   1.704 -0.3335  0.0011  0.0825
 5183TIP3    H132121   0.061   3.659   1.730 -0.8626  0.4588  1.4746
 5183TIP3    H232122  -0.003   3.774   1.656 -0.6063 -0.0158  0.5077
 5184TIP3   OH232123   4.198   1.240   8.255 -0.5856 -0.0504 -0.0031
 5184TIP3    H132124   4.225   1.149   8.254  1.1825  0.4245 -1.2299
 5184TIP3    H232125   4.108   1.238   8.286 -0.1794 -2.0632  1.2458
 5185TIP3   OH232126   4.872   6.341   1.726  0.0613 -0.0840  0.3189
 5185TIP3    H132127   4.817   6.348   1.805 -0.4190  0.0289 -0.0205
 5185TIP3    H232128   4.911   6.253   1.732 -0.9953 -0.5939  0.0393
 5186TIP3   OH232129   4.004   1.925   1.834  0.6898  0.5584  0.2513
 5186TIP3    H132130   4.023   1.839   1.797 -0.3016  0.2220  0.5049
 5186TIP3    H232131   4.035   1.987   1.767  0.6960 -0.0088 -0.2730
 5187TIP3   OH232132   6.124   2.191   7.913 -0.3768  0.0098  0.1839
 5187TIP3    H132133   6.071   2.145   7.847 -0.2208 -1.4784  1.0537
 5187TIP3    H232134   6.070   2.266   7.939 -1.1513 -0.3115 -0.4427
 5188TIP3   OH232135   1.538   3.430   1.271  0.1003 -0.3490  0.0911
 5188TIP3    H132136   1.594   3.460   1.200 -0.5039  0.4850 -0.0495
 5188TIP3    H232137   1.566   3.340   1.288  0.3301 -0.5126 -1.1162
 5189TIP3   OH232138   5.404   6.140   1.077  0.0825 -0.7347  0.2968
 5189TIP3    H132139   5.396   6.230   1.044  1.2680 -0.2414  1.2873
 5189TIP3    H232140   5.485   6.140   1.127  0.6335 -2.6194 -0.4873
 5190TIP3   OH232141   3.974   3.967   8.170  0.0256 -0.3485  0.2151
 5190TIP3    H132142   4.027   3.995   8.095 -0.0470 -0.0664  0.2663
 5190TIP3    H232143   3.957   3.875   8.154  1.4723 -0.7438  0.7502
 5191TIP3   OH232144   0.733   2.837   6.880  0.5446 -0.2723 -0.9376
 5191TIP3    H132145   0.794   2.782   6.832  0.5666 -1.4487  0.3593
 5191TIP3    H232146   0.651   2.831   6.831  0.9885 -0.1479 -1.6954
 5192TIP3   OH232147   3.164   2.739   7.786  0.0025  0.1032  0.2205
 5192TIP3    H132148   3.121   2.762   7.703  1.8500  1.7638 -0.3222
 5192TIP3    H232149   3.108   2.670   7.822 -1.7885  0.5052 -1.5787
 5193TIP3   OH232150   5.378   6.049   6.758  0.1590 -0.1906 -0.1540
 5193TIP3    H132151   5.290   6.076   6.733  0.9828  0.8050 -2.1828
 5193TIP3    H232152   5.415   6.125   6.803  0.5872  0.0675 -0.9283
 5194TIP3   OH232153   0.350   0.582   6.520  0.1563 -0.0937  0.1490
 5194TIP3    H132154   0.270   0.555   6.477 -0.6868 -0.2173  1.7151
 5194TIP3    H232155   0.333   0.672   6.548  0.2727 -0.3691  1.1349
 5195TIP3   OH232156   5.545   4.035   0.515 -0.4525  0.5352 -0.2357
 5195TIP3    H132157   5.587   3.956   0.551  0.4128  0.3662 -1.5195
 5195TIP3    H232158   5.573   4.036   0.423 -0.4147  2.3615 -0.2319
 5196TIP3   OH232159   0.243   2.399   1.590 -0.4364 -0.2388  0.3995
 5196TIP3    H132160   0.332   2.368   1.575 -0.0946  0.3191  1.2236
 5196TIP3    H232161   0.187   2.327   1.559  0.2376  0.0608 -1.6587
 5197TIP3   OH232162   1.440   1.556   7.021  0.0660 -0.6043 -0.0912
 5197TIP3    H132163   1.471   1.641   7.053 -1.8617  0.0232  0.2276
 5197TIP3    H232164   1.476   1.550   6.932 -0.8844  1.2021 -0.6375
 5198TIP3   OH232165   2.293   2.064   7.353  0.1746  0.4312 -0.4915
 5198TIP3    H132166   2.255   2.041   7.268 -1.2966 -1.0150  0.5028
 5198TIP3    H232167   2.364   2.002   7.365 -0.6207 -0.4059 -0.0021
 5199TIP3   OH232168   0.259   0.816   8.205 -0.2486  0.6346  1.1387
 5199TIP3    H132169   0.231   0.743   8.149 -0.8543 -0.9768  3.4050
 5199TIP3    H232170   0.284   0.885   8.143 -0.2555 -1.2371 -1.1031
 5200TIP3   OH232171   2.772   3.359   2.513  0.2614 -0.7784  0.1518
 5200TIP3    H132172   2.828   3.350   2.590 -1.6009 -0.2270  1.6504
 5200TIP3    H232173   2.816   3.424   2.459  2.5218 -2.4665 -0.1746
 5201TIP3   OH232174   2.265   0.084   7.847 -0.7496  0.1945 -0.5198
 5201TIP3    H132175   2.288  -0.009   7.838 -1.2997  0.0369 -0.3531
 5201TIP3    H232176   2.296   0.124   7.766 -1.4930 -0.3466 -1.0876
 5202TIP3   OH232177   0.074   1.039   7.223 -0.1964  0.1326  0.4481
 5202TIP3    H132178   0.015   1.048   7.148  0.2920  1.1485  0.1642
 5202TIP3    H232179   0.061   0.949   7.253 -2.7382  0.6452  1.1158
 5203TIP3   OH232180   6.321   4.772   8.517  0.6323  0.1082  0.1925
 5203TIP3    H132181   6.287   4.731   8.438  2.1744 -0.1365 -0.3896
 5203TIP3    H232182   6.244   4.810   8.560 -0.3552 -0.5153 -0.9612
 5204TIP3   OH232183   3.786   3.790   0.399 -0.1985  0.1272  0.0891
 5204TIP3    H132184   3.835   3.708   0.403 -0.4901 -0.0010  1.3921
 5204TIP3    H232185   3.714   3.779   0.461  0.2506  1.6674  0.9494
 5205TIP3   OH232186   5.150   5.944   0.884 -0.7486 -0.1782 -0.1480
 5205TIP3    H132187   5.188   5.858   0.864 -0.1485  0.3642 -1.4508
 5205TIP3    H232188   5.208   6.007   0.839 -1.5215  0.8639  0.2795
 5206TIP3   OH232189   1.880   1.237   7.352 -0.0261 -0.0371 -0.1295
 5206TIP3    H132190   1.846   1.325   7.369 -0.9546 -0.3442 -0.2924
 5206TIP3    H232191   1.923   1.211   7.433  2.0342  1.3197 -0.7058
 5207TIP3   OH232192   6.264   6.277   1.287 -0.1085  0.5382 -0.4464
 5207TIP3    H132193   6.190   6.324   1.248 -0.9743  0.5238  1.0869
 5207TIP3    H232194   6.307   6.343   1.341 -0.2742  0.0224  0.3266
 5208TIP3   OH232195   4.956   5.578   9.204  0.5238 -0.3779 -0.3462
 5208TIP3    H132196   4.905   5.612   9.277 -0.9381  0.3635 -1.6480
 5208TIP3    H232197   4.971   5.653   9.148  0.4542 -1.1673 -1.4633
 5209TIP3   OH232198   3.411   6.171   8.969 -0.0300 -0.1283 -0.5738
 5209TIP3    H132199   3.464   6.153   9.047 -0.2791  0.2039 -0.3240
 5209TIP3    H232200   3.327   6.199   9.003  0.1574  0.9484 -0.9488
 5210TIP3   OH232201   2.471   2.926   7.276  0.1602  0.1570  0.4100
 5210TIP3    H132202   2.514   2.937   7.192  1.7108  1.9346  1.3696
 5210TIP3    H232203   2.398   2.988   7.275 -0.8546 -1.0031 -0.2139
 5211TIP3   OH232204   5.206   1.515   9.245  0.2201 -0.1023 -0.4209
 5211TIP3    H132205   5.182   1.604   9.220  0.0774  0.1567  0.5965
 5211TIP3    H232206   5.243   1.524   9.333  0.7335 -0.9729 -0.5348
 5212TIP3   OH232207   4.653   2.446   0.405 -0.6169  0.8063 -0.1917
 5212TIP3    H132208   4.602   2.527   0.403 -0.1802  1.1066  0.5410
 5212TIP3    H232209   4.710   2.451   0.328 -0.2940  1.3963  0.0812
 5213TIP3   OH232210   4.226   2.418   1.154  0.4647  0.1786 -0.2767
 5213TIP3    H132211   4.197   2.422   1.063  1.1756 -1.1962 -0.5784
 5213TIP3    H232212   4.213   2.327   1.180  2.8622 -0.1136  0.0959
 5214TIP3   OH232213   2.338   1.851   7.968  0.2505  0.0750 -0.1944
 5214TIP3    H132214   2.431   1.864   7.951  0.4665 -0.0007  0.8492
 5214TIP3    H232215   2.299   1.937   7.955  0.3301 -0.0606 -1.4122
 5215TIP3   OH232216   4.061   5.160   8.087  0.1172 -0.1798  0.2444
 5215TIP3    H132217   4.123   5.176   8.015 -1.5226  1.1212 -0.9629
 5215TIP3    H232218   4.111   5.179   8.166  1.1880  1.1305 -0.6966
 5216TIP3   OH232219   3.021   3.014   7.750 -0.0864  0.4830 -0.3780
 5216TIP3    H132220   2.929   2.988   7.751 -0.2030  0.5897 -2.6872
 5216TIP3    H232221   3.069   2.935   7.776 -0.8383  1.3566  4.5625
 5217TIP3   OH232222   1.409   3.876   0.993 -0.1072  0.0440  0.3602
 5217TIP3    H132223   1.494   3.835   1.010  0.4482  1.0952  0.1772
 5217TIP3    H232224   1.385   3.845   0.906 -1.1502 -2.2864  1.3832
 5218TIP3   OH232225   4.403   3.064   2.434 -0.6434 -0.4450  0.4982
 5218TIP3    H132226   4.415   3.034   2.524 -0.7162 -2.3435 -0.0742
 5218TIP3    H232227   4.395   2.983   2.383 -1.9718  0.5901 -1.0342
 5219TIP3   OH232228   5.571   1.291   0.038  0.0131  0.1432  0.7002
 5219TIP3    H132229   5.610   1.208   0.067  0.3013 -0.3024 -0.8976
 5219TIP3    H232230   5.637   1.330  -0.020 -1.0257  0.4208 -0.3256
 5220TIP3   OH232231   2.961   6.316   3.289 -0.5307  0.0594 -0.3359
 5220TIP3    H132232   3.043   6.273   3.313 -0.8596  0.2183  1.2103
 5220TIP3    H232233   2.952   6.300   3.195  0.5503 -1.1938 -0.2606
 5221TIP3   OH232234   1.277   0.317   0.230 -0.1402 -0.3909  0.1075
 5221TIP3    H132235   1.239   0.232   0.207  2.4670 -1.2987 -1.1795
 5221TIP3    H232236   1.323   0.301   0.313  0.7490 -0.4049 -0.3727
 5222TIP3   OH232237   2.545   1.356   8.874  0.1127 -0.1553  0.4081
 5222TIP3    H132238   2.504   1.408   8.944  0.7768  0.1720  0.5659
 5222TIP3    H232239   2.590   1.421   8.819  0.7533 -0.5321  0.4753
 5223TIP3   OH232240   0.264   2.185   0.298 -0.0968 -0.2461  0.4242
 5223TIP3    H132241   0.181   2.233   0.304  0.8337  1.8568 -2.0052
 5223TIP3    H232242   0.259   2.138   0.215  0.4962 -1.4862  1.0628
 5224TIP3   OH232243   5.617   3.963   3.334  0.7636  0.2479  0.5277
 5224TIP3    H132244   5.528   3.975   3.366  0.4688 -1.4251  0.4394
 5224TIP3    H232245   5.638   4.046   3.291 -2.4945 -0.6625 -3.5271
 5225TIP3   OH232246   5.300   6.191   0.509 -0.2149  0.0147  0.6431
 5225TIP3    H132247   5.333   6.161   0.593  0.7773  0.2940  0.3617
 5225TIP3    H232248   5.288   6.112   0.457 -1.3057 -0.2061  1.1940
 5226TIP3   OH232249   2.366   5.688   7.279  0.1683  0.1925 -0.2988
 5226TIP3    H132250   2.353   5.678   7.373  0.4355 -2.1042 -0.4603
 5226TIP3    H232251   2.281   5.666   7.241  0.9356 -2.4103 -0.7118
 5227TIP3   OH232252   0.661   2.167   9.268  0.2943  0.2201  0.1522
 5227TIP3    H132253   0.664   2.112   9.190  1.7959  2.1077 -1.2144
 5227TIP3    H232254   0.577   2.213   9.262  0.0187 -0.2860  0.1172
 5228TIP3   OH232255   4.813   5.025   7.375 -0.2682  0.0397  0.8591
 5228TIP3    H132256   4.823   5.101   7.317 -1.3470  0.1489  0.7999
 5228TIP3    H232257   4.759   4.963   7.326  2.5128 -1.8296 -0.0664
 5229TIP3   OH232258   4.165   4.019   1.935  0.3820 -0.3826  0.1258
 5229TIP3    H132259   4.207   3.953   1.990 -1.6400 -3.3956 -1.6749
 5229TIP3    H232260   4.213   4.016   1.853 -0.7367 -0.7968 -0.5217
 5230TIP3   OH232261   3.340   1.444   7.824 -0.5909 -0.3552 -0.5964
 5230TIP3    H132262   3.276   1.510   7.849  1.4857  1.6159 -0.2225
 5230TIP3    H232263   3.389   1.483   7.752  1.2033 -1.1411  0.1347
 5231TIP3   OH232264   0.347   4.937   9.126  0.2938  0.7886  0.1138
 5231TIP3    H132265   0.401   4.979   9.194  0.4671 -1.6550  1.5758
 5231TIP3    H232266   0.397   4.860   9.100 -0.8619  0.4345 -1.1450
 5232TIP3   OH232267   1.616   4.148   0.707  0.0025 -0.5368  0.0312
 5232TIP3    H132268   1.623   4.053   0.708 -1.1278 -0.6366 -0.1104
 5232TIP3    H232269   1.664   4.175   0.629  0.0908 -1.0087 -0.0821
 5233TIP3   OH232270   3.954   2.853   1.496 -0.1306  0.0605 -0.2205
 5233TIP3    H132271   3.998   2.784   1.545  1.2838  0.7248 -0.4862
 5233TIP3    H232272   3.938   2.815   1.409 -3.2276 -1.3413  0.8468
 5234TIP3   OH232273   6.318   3.334   0.355 -0.1096 -0.4689  0.1821
 5234TIP3    H132274   6.270   3.320   0.274 -1.6824  0.2423  0.9472
 5234TIP3    H232275   6.381   3.403   0.335 -0.8624  0.0875 -0.2999
 5235TIP3   OH232276   1.068   1.571   5.924  0.1611  0.3394  0.6362
 5235TIP3    H132277   1.150   1.549   5.968  0.2528  1.2941  0.9825
 5235TIP3    H232278   1.027   1.487   5.906  1.0939 -0.1471  0.6899
 5236TIP3   OH232279   3.971   5.615   8.813 -0.1469  0.3499 -0.6584
 5236TIP3    H132280   3.969   5.709   8.832 -1.0795  0.3918 -0.9268
 5236TIP3    H232281   3.920   5.575   8.883 -0.7109  0.1621 -1.1691
 5237TIP3   OH232282   0.228   1.134   0.563  0.0040  0.1080 -0.0036
 5237TIP3    H132283   0.244   1.179   0.646 -0.9436  0.9482 -0.2592
 5237TIP3    H232284   0.147   1.084   0.578 -0.0891  0.1456 -0.3758
 5238TIP3   OH232285   1.918   1.133   0.545 -0.2599 -0.0656 -0.8152
 5238TIP3    H132286   1.945   1.057   0.493 -0.7495  0.3763 -1.7343
 5238TIP3    H232287   1.832   1.110   0.579 -0.9892  0.5694 -2.1657
 5239TIP3   OH232288   2.663   1.799   8.179  0.3624 -0.1419  0.2993
 5239TIP3    H132289   2.656   1.704   8.175  0.0120 -0.1362  0.7197
 5239TIP3    H232290   2.736   1.816   8.238  0.9565 -0.1536 -0.4188
 5240TIP3   OH232291   5.610   4.582   1.996  0.0380 -0.2741  0.1545
 5240TIP3    H132292   5.581   4.496   2.026 -0.9147 -0.0984 -0.2426
 5240TIP3    H232293   5.532   4.636   2.000 -0.0270 -0.1165 -2.2207
 5241TIP3   OH232294   0.001   4.393   9.009 -0.1324  0.1636 -0.3775
 5241TIP3    H132295   0.072   4.333   8.987  0.9646  1.7095 -1.2648
 5241TIP3    H232296   0.027   4.476   8.970  0.2491  2.2771  3.7781
 5242TIP3   OH232297   4.623   5.680   2.884  0.2450 -0.2165  0.3940
 5242TIP3    H132298   4.676   5.615   2.836  0.5181 -1.1110  1.8437
 5242TIP3    H232299   4.674   5.698   2.963  1.3915  3.6606 -1.0117
 5243TIP3   OH232300   0.307   1.349   0.397  0.1223 -0.3990  0.4253
 5243TIP3    H132301   0.228   1.401   0.415 -0.1197  0.0026 -1.5788
 5243TIP3    H232302   0.312   1.287   0.469 -1.9085 -0.2700  0.7255
 5244TIP3   OH232303   0.799   0.141   1.671  0.3354  0.5103 -0.0292
 5244TIP3    H132304   0.860   0.072   1.645 -0.8467 -0.9361  0.8737
 5244TIP3    H232305   0.793   0.199   1.594  1.0702 -0.5940 -0.9406
 5245TIP3   OH232306   3.270   4.821   7.934 -0.9490 -0.1350 -0.2484
 5245TIP3    H132307   3.259   4.839   8.028 -0.0961 -0.4406 -0.0809
 5245TIP3    H232308   3.253   4.727   7.926  0.6524 -0.4621 -0.1059
 5246TIP3   OH232309   3.323   2.735   0.157 -0.1382  0.1791 -0.3820
 5246TIP3    H132310   3.388   2.699   0.217  0.0558  0.4179 -0.4466
 5246TIP3    H232311   3.240   2.727   0.204 -0.1024 -0.3585 -0.4009
 5247TIP3   OH232312   4.134   5.236   1.287 -0.7267  0.3357 -0.1772
 5247TIP3    H132313   4.192   5.283   1.347 -1.1064  0.5291  0.0426
 5247TIP3    H232314   4.193   5.192   1.226 -0.3373  0.1148  0.3544
 5248TIP3   OH232315   1.447   5.793   2.256  0.1500 -0.0451 -0.3576
 5248TIP3    H132316   1.452   5.790   2.352  0.0546 -0.4526 -0.3659
 5248TIP3    H232317   1.526   5.749   2.227  0.1756  0.0736 -0.4679
 5249TIP3   OH232318   1.329   6.111   1.259 -0.1355  0.6004  0.3749
 5249TIP3    H132319   1.251   6.158   1.228  0.1478  0.2214 -0.9536
 5249TIP3    H232320   1.396   6.131   1.194  0.4414 -0.3330  0.6718
 5250TIP3   OH232321   1.676   0.160   8.739  0.3789 -0.0018 -0.8011
 5250TIP3    H132322   1.750   0.164   8.799 -0.0082  1.2817 -0.3874
 5250TIP3    H232323   1.634   0.076   8.760  0.6759  0.0817  0.2059
 5251TIP3   OH232324   3.384   1.007   9.299  0.5423  0.3265 -0.7216
 5251TIP3    H132325   3.443   1.003   9.224 -0.0066  2.9671 -1.4064
 5251TIP3    H232326   3.326   0.931   9.287  2.7864 -1.4886 -0.8056
 5252TIP3   OH232327   5.223   5.733   7.172  0.4962  0.3347  0.0794
 5252TIP3    H132328   5.313   5.739   7.204  0.7875 -0.3775 -0.5593
 5252TIP3    H232329   5.201   5.822   7.145  1.2287  0.4166 -0.2969
 5253TIP3   OH232330   1.958   0.352   6.968 -0.0333  0.2086 -0.4445
 5253TIP3    H132331   1.918   0.275   7.008 -2.8606  1.7919  0.0636
 5253TIP3    H232332   1.900   0.375   6.896  2.8020 -0.2388 -3.0677
 5254TIP3   OH232333   4.672   5.034   1.238 -0.1794 -0.0291 -0.5857
 5254TIP3    H132334   4.625   4.968   1.187  0.5457 -1.5659  0.5989
 5254TIP3    H232335   4.742   5.064   1.180  1.0042 -2.1804 -0.4062
 5255TIP3   OH232336   1.788   0.285   8.488 -0.1669  0.0849  0.0593
 5255TIP3    H132337   1.870   0.331   8.471  0.8986 -1.1730  1.4807
 5255TIP3    H232338   1.803   0.240   8.571 -2.4186  0.0341  0.4892
 5256TIP3   OH232339   4.195   1.514   0.184  0.5419 -0.1300  0.0188
 5256TIP3    H132340   4.218   1.606   0.195 -0.0953  0.0552 -0.1746
 5256TIP3    H232341   4.279   1.470   0.167  0.9380  0.2983  0.8237
 5257TIP3   OH232342   4.450   2.313   0.949  0.4395  0.5538 -0.7987
 5257TIP3    H132343   4.427   2.353   1.032  0.9832  0.7728 -0.7450
 5257TIP3    H232344   4.390   2.239   0.939  0.4533  0.4507 -0.1541
 5258TIP3   OH232345   1.876   4.535   2.862 -0.4034 -0.3948 -0.3421
 5258TIP3    H132346   1.842   4.538   2.952  1.1381 -0.1437  0.2529
 5258TIP3    H232347   1.937   4.461   2.862 -0.4139 -0.4080 -1.1930
 5259TIP3   OH232348   0.100   6.395   7.091  0.0275 -0.3982  0.3961
 5259TIP3    H132349   0.004   6.394   7.093  0.0254  0.1128  0.7144
 5259TIP3    H232350   0.124   6.317   7.040 -0.5745 -0.0664 -0.4109
 5260TIP3   OH232351   4.934   5.484   0.739 -0.6835  0.1163  0.7723
 5260TIP3    H132352   4.839   5.475   0.742 -0.7690 -0.3321 -1.6255
 5260TIP3    H232353   4.951   5.532   0.658  1.0937  1.2352  1.7456
 5261TIP3   OH232354   2.540   6.279   8.207 -0.2022 -0.3812  0.2201
 5261TIP3    H132355   2.632   6.302   8.191 -0.0824 -1.0893 -0.1405
 5261TIP3    H232356   2.510   6.241   8.124 -1.5117  1.9527 -0.4813
 5262TIP3   OH232357   5.326   3.330   8.614 -0.0043  0.0105  0.0518
 5262TIP3    H132358   5.278   3.315   8.695  0.8234 -0.8648  0.4072
 5262TIP3    H232359   5.348   3.423   8.615 -0.9593  0.2361  0.2822
 5263TIP3   OH232360   4.135   0.195   9.295  0.3485 -0.4509  0.0859
 5263TIP3    H132361   4.088   0.226   9.373  3.0663 -2.6556  2.8416
 5263TIP3    H232362   4.066   0.165   9.236 -1.8379  1.0992  1.6984
 5264TIP3   OH232363   5.635   6.153   0.030 -0.1526  0.2894 -0.7884
 5264TIP3    H132364   5.570   6.111  -0.026 -1.0854 -0.6501  0.9132
 5264TIP3    H232365   5.587   6.179   0.108  1.2832  0.6622  0.0094
 5265TIP3   OH232366   5.607   6.442   8.599 -0.0871 -0.3672 -0.0602
 5265TIP3    H132367   5.643   6.369   8.650  0.0654 -0.7138 -0.6513
 5265TIP3    H232368   5.546   6.400   8.538  2.0087 -0.3687 -2.2996
 5266TIP3   OH232369   2.594   0.878   7.756 -0.4446  0.4014  0.1002
 5266TIP3    H132370   2.588   0.789   7.722 -0.3827  1.0023 -1.6255
 5266TIP3    H232371   2.565   0.933   7.683 -1.6336  1.7457  1.5216
 5267TIP3   OH232372   4.011   2.475   8.010 -0.1163  0.6750 -0.2767
 5267TIP3    H132373   4.054   2.556   8.039  1.2531  0.0336 -0.4549
 5267TIP3    H232374   3.938   2.505   7.957  0.0399  1.8113  0.1173
 5268TIP3   OH232375   4.734   0.162   2.334 -0.7329  0.2108  0.3063
 5268TIP3    H132376   4.727   0.151   2.429 -0.6674  1.2537  0.4379
 5268TIP3    H232377   4.773   0.080   2.303  0.4448  0.3660  1.3221
 5269TIP3   OH232378   1.943   3.344   0.887  0.5324 -0.2001 -0.3755
 5269TIP3    H132379   1.930   3.254   0.858  0.2660 -0.1248 -0.4923
 5269TIP3    H232380   1.946   3.395   0.807  3.7191 -0.4472 -0.5452
 5270TIP3   OH232381   1.478   0.285   6.977 -0.4066  0.6550  0.6510
 5270TIP3    H132382   1.541   0.309   7.045 -0.5602  0.3613  0.9011
 5270TIP3    H232383   1.503   0.196   6.953  0.8077  1.3857 -0.9973
 5271TIP3   OH232384   5.051   5.578   7.481  0.7830 -0.0403 -0.4563
 5271TIP3    H132385   4.988   5.505   7.487 -0.5615  1.0906 -0.3685
 5271TIP3    H232386   5.096   5.577   7.566 -0.5991  0.4087  0.3190
 5272TIP3   OH232387   1.686   1.703   9.370 -0.3888 -0.0943 -0.7372
 5272TIP3    H132388   1.706   1.789   9.334  1.2998  0.6615  1.7836
 5272TIP3    H232389   1.613   1.717   9.430  0.3402 -0.2536  0.2091
 5273TIP3   OH232390   5.062   0.816   7.354 -0.6725  0.4107  0.2489
 5273TIP3    H132391   5.069   0.724   7.380  1.9817  0.3114 -0.4587
 5273TIP3    H232392   5.047   0.813   7.260  1.5365  0.5967 -0.1707
 5274TIP3   OH232393   1.644   5.238   0.621  0.4935  0.5546 -0.0162
 5274TIP3    H132394   1.577   5.173   0.644  1.4064 -0.5756 -0.4190
 5274TIP3    H232395   1.705   5.237   0.695  0.5012  0.9720 -0.0147
 5275TIP3   OH232396   0.619   0.822   0.561 -0.1101  0.0721  0.0988
 5275TIP3    H132397   0.691   0.882   0.542 -0.4644  0.9122  1.2536
 5275TIP3    H232398   0.597   0.839   0.653 -3.2660  1.5379 -0.7668
 5276TIP3   OH232399   2.193   0.678   6.955  0.4197 -0.7634  0.0163
 5276TIP3    H132400   2.100   0.660   6.941  0.1891  0.5720 -0.3279
 5276TIP3    H232401   2.195   0.762   7.002  1.4566 -0.7661  0.0148
 5277TIP3   OH232402   3.606   2.318   0.871  0.2189  0.2380 -0.3079
 5277TIP3    H132403   3.599   2.227   0.899  2.3536  0.5512  1.4993
 5277TIP3    H232404   3.692   2.346   0.903 -0.6228  3.0572 -0.3056
 5278TIP3   OH232405   6.093   3.723   0.243  0.4268  0.2728 -0.1816
 5278TIP3    H132406   6.032   3.778   0.192  1.1535  0.2652 -1.0866
 5278TIP3    H232407   6.047   3.706   0.325 -0.4800  0.8973 -0.5434
 5279TIP3   OH232408   5.702   3.471   2.229 -0.0347 -0.0795  0.0832
 5279TIP3    H132409   5.664   3.462   2.316  1.1979  0.3522  0.6899
 5279TIP3    H232410   5.681   3.561   2.203 -2.0519 -0.7780 -0.9149
 5280TIP3   OH232411   5.404   5.729   1.787 -0.3536  0.2615 -0.1526
 5280TIP3    H132412   5.437   5.671   1.855  0.3554  1.6081  0.6889
 5280TIP3    H232413   5.309   5.724   1.795 -0.2803  0.5984  1.1271
 5281TIP3   OH232414   0.781   2.831   8.676  0.0609  0.7113  0.2549
 5281TIP3    H132415   0.753   2.815   8.767 -0.0548  0.8233  0.2386
 5281TIP3    H232416   0.713   2.790   8.623 -0.8861  2.2984  0.2016
 5282TIP3   OH232417   0.492   3.730   9.364 -0.0668 -0.0303 -0.9268
 5282TIP3    H132418   0.467   3.768   9.280 -0.7188 -0.1879 -0.8089
 5282TIP3    H232419   0.498   3.805   9.423  0.8576  0.1382 -1.2098
 5283TIP3   OH232420   0.107   5.270   6.567  0.5216 -0.1295  0.2682
 5283TIP3    H132421   0.171   5.210   6.529  1.0356  0.4707  0.1712
 5283TIP3    H232422   0.024   5.222   6.563  0.3797  0.2015 -2.3757
 5284TIP3   OH232423   5.429   1.281   1.389  0.1489  0.1776  0.2858
 5284TIP3    H132424   5.473   1.197   1.403 -0.8509 -0.2023  1.3870
 5284TIP3    H232425   5.496   1.347   1.406  0.7388 -0.3881  0.1974
 5285TIP3   OH232426   4.382   1.659   0.748  0.6715 -0.6183  0.8317
 5285TIP3    H132427   4.369   1.613   0.665 -0.9696  1.8549 -0.4263
 5285TIP3    H232428   4.308   1.632   0.802  0.7477 -0.8648  0.8132
 5286TIP3   OH232429   4.856   6.088  -0.023 -0.1618 -0.4372  0.1317
 5286TIP3    H132430   4.893   6.176  -0.011 -0.0818 -0.6473  1.7015
 5286TIP3    H232431   4.872   6.044   0.061 -2.5543 -1.0402  0.3664
 5287TIP3   OH232432   1.316   1.173   2.112  0.3068 -0.0245  0.1531
 5287TIP3    H132433   1.399   1.216   2.093  0.0975  1.2803  1.8501
 5287TIP3    H232434   1.283   1.220   2.189 -1.9044 -0.6369 -0.3578
 5288TIP3   OH232435   5.092   3.728   7.636 -0.0983  0.2919  0.0796
 5288TIP3    H132436   5.133   3.664   7.578 -0.0516 -0.1830  0.6295
 5288TIP3    H232437   5.111   3.696   7.724 -3.3520 -1.0982  0.4141
 5289TIP3   OH232438   4.315   0.878   7.262  1.4019  0.3515  0.0521
 5289TIP3    H132439   4.369   0.857   7.186  1.4342  1.0390 -0.1263
 5289TIP3    H232440   4.235   0.916   7.225  0.2700 -1.6736  0.2571
 5290TIP3   OH232441   4.212   3.728   0.690  0.8926 -0.4427 -0.4640
 5290TIP3    H132442   4.170   3.747   0.774 -0.2535 -0.4284 -1.0291
 5290TIP3    H232443   4.251   3.811   0.663  0.9090 -0.3491 -0.1548
 5291TIP3   OH232444   1.570   6.213   2.800 -0.2376  0.6607  0.1849
 5291TIP3    H132445   1.638   6.196   2.735 -2.0720  0.0640 -1.6921
 5291TIP3    H232446   1.607   6.279   2.858  2.2035 -0.2022 -0.2844
 5292TIP3   OH232447   4.604   3.142   6.892  0.1583 -0.2091 -0.0457
 5292TIP3    H132448   4.671   3.189   6.844  0.7509  0.0809  1.0377
 5292TIP3    H232449   4.560   3.089   6.825  1.2220 -0.1389 -0.8380
 5293TIP3   OH232450   5.160   3.263   8.832 -0.6928  0.2934  0.1462
 5293TIP3    H132451   5.168   3.267   8.927 -1.8751  0.6366  0.2456
 5293TIP3    H232452   5.135   3.172   8.814 -0.6639  0.2774  0.1872
 5294TIP3   OH232453   4.817   2.671   0.124  0.7614  0.2976 -0.0918
 5294TIP3    H132454   4.838   2.717   0.043  1.7511 -1.4108 -0.8674
 5294TIP3    H232455   4.750   2.608   0.100  0.3847  0.4097  0.6368
 5295TIP3   OH232456   0.557   6.149   7.651 -0.1660 -0.4562 -0.2964
 5295TIP3    H132457   0.477   6.191   7.682 -0.9601 -1.0890 -1.4366
 5295TIP3    H232458   0.628   6.199   7.693 -1.1438 -0.1449  1.0444
 5296TIP3   OH232459   5.031   5.291   0.170  0.2711 -0.0925  0.1115
 5296TIP3    H132460   5.088   5.312   0.244  0.0596  2.5976 -0.3557
 5296TIP3    H232461   4.946   5.326   0.194  0.2192  0.9162 -1.3584
 5297TIP3   OH232462   5.230   4.920   7.401  0.7319 -0.1601  0.0833
 5297TIP3    H132463   5.269   4.990   7.453  0.4598 -0.6824  1.0230
 5297TIP3    H232464   5.303   4.884   7.351  0.5406  2.0416 -1.9462
 5298TIP3   OH232465   4.487   5.509   1.531 -0.0413  0.1982  0.0302
 5298TIP3    H132466   4.393   5.503   1.510 -0.0630  0.4743  0.0385
 5298TIP3    H232467   4.518   5.419   1.530  0.2299  0.2624 -2.3519
 5299TIP3   OH232468   0.443   4.305   8.099  0.2993  0.3504  0.3239
 5299TIP3    H132469   0.400   4.286   8.015  0.3845 -1.5856  0.6695
 5299TIP3    H232470   0.535   4.314   8.077  0.0991  1.8601 -0.0363
 5300TIP3   OH232471   4.610   6.395   1.977  0.1269  0.2442  0.5000
 5300TIP3    H132472   4.521   6.393   2.014  0.1928  1.5980  0.7707
 5300TIP3    H232473   4.642   6.483   1.995  1.0092  0.2311 -0.8291
 5301TIP3   OH232474   3.009   6.170   7.015 -0.3780  0.0745 -0.2995
 5301TIP3    H132475   3.034   6.093   7.065  0.4947  0.1790 -0.5649
 5301TIP3    H232476   3.026   6.244   7.073 -0.6023  0.1093 -0.2784
 5302TIP3   OH232477   4.546   4.048   8.627  1.3099  0.0642  0.2553
 5302TIP3    H132478   4.496   3.966   8.626  1.5126 -0.0558  0.0037
 5302TIP3    H232479   4.542   4.077   8.718  1.7970 -0.5647  0.4786
 5303TIP3   OH232480   1.063   2.126   7.942 -0.5535  0.4730 -0.1883
 5303TIP3    H132481   1.144   2.149   7.896 -0.1954  2.8268  1.4441
 5303TIP3    H232482   0.997   2.185   7.906 -0.7734  0.8082  0.7377
 5304TIP3   OH232483   2.604   2.135   9.362 -0.5598  0.3278  0.1857
 5304TIP3    H132484   2.692   2.102   9.345 -0.2541  0.9784  0.4663
 5304TIP3    H232485   2.618   2.214   9.415 -1.1595  1.8121 -1.7485
 5305TIP3   OH232486   4.058   4.493   0.636 -0.3171  0.1596  0.2594
 5305TIP3    H132487   4.034   4.432   0.706  0.8040 -0.0179  0.5104
 5305TIP3    H232488   4.094   4.437   0.567  1.4660  0.5568  0.8108
 5306TIP3   OH232489   0.543   3.373   8.067 -0.0398  0.5961 -0.1074
 5306TIP3    H132490   0.592   3.366   7.986  0.0045  0.3142 -0.0554
 5306TIP3    H232491   0.566   3.295   8.117 -0.8856  0.2287 -0.2758
 5307TIP3   OH232492   6.039   5.213   1.635 -0.1408 -0.2694  0.7710
 5307TIP3    H132493   6.091   5.264   1.697 -0.0371 -0.4078  0.7962
 5307TIP3    H232494   6.089   5.214   1.554  0.9567 -2.2026  1.3756
 5308TIP3   OH232495   5.506   1.792   7.380 -0.4094 -0.2528 -1.0974
 5308TIP3    H132496   5.547   1.741   7.450  0.0152  0.0369 -1.1304
 5308TIP3    H232497   5.547   1.878   7.387 -2.2281  0.5849 -0.0333
 5309TIP3   OH232498   5.756   5.103   1.081  0.1327 -0.5690  0.3951
 5309TIP3    H132499   5.800   5.153   1.013 -1.3898 -1.2896 -1.2205
 5309TIP3    H232500   5.756   5.160   1.158  0.4952  0.9344 -0.6840
 5310TIP3   OH232501   3.782   0.253   7.296  0.0984 -0.4213  0.2107
 5310TIP3    H132502   3.726   0.219   7.225  1.1767 -0.4398 -0.6559
 5310TIP3    H232503   3.722   0.265   7.369 -0.6984 -2.3121 -0.0573
 5311TIP3   OH232504   4.750   2.236   0.177 -0.4495 -0.1231 -0.0528
 5311TIP3    H132505   4.793   2.159   0.140  0.0164  0.2445 -0.2964
 5311TIP3    H232506   4.724   2.210   0.265  2.0825  0.2324  0.9030
 5312TIP3   OH232507   1.444   5.319   1.776 -0.1432  0.3094  0.4694
 5312TIP3    H132508   1.468   5.344   1.687 -1.3537 -0.0852  0.0083
 5312TIP3    H232509   1.483   5.232   1.788 -1.3646 -0.3633 -0.2985
 5313TIP3   OH232510   2.138   1.461   0.841  0.3291  0.0681 -0.1732
 5313TIP3    H132511   2.079   1.535   0.851  0.2267 -0.0809  0.3361
 5313TIP3    H232512   2.188   1.458   0.923  0.4188 -0.3482 -0.2409
 5314TIP3   OH232513   0.163   3.021   6.803  0.1664  0.4864 -0.0151
 5314TIP3    H132514   0.077   3.063   6.810 -0.0843  0.0406 -0.3930
 5314TIP3    H232515   0.177   3.010   6.709  0.1518 -0.4146  0.0751
 5315TIP3   OH232516   1.767   0.489   9.220  0.4176  0.3163  0.2185
 5315TIP3    H132517   1.698   0.434   9.256  0.7456  0.7537  1.5768
 5315TIP3    H232518   1.841   0.475   9.280  1.6938 -0.5259 -1.4664
 5316TIP3   OH232519   0.588   2.435   7.558 -0.3169  0.1803  0.9252
 5316TIP3    H132520   0.503   2.478   7.544  0.0499  0.6734  0.1301
 5316TIP3    H232521   0.652   2.505   7.545  0.3222 -0.6608 -0.8060
 5317TIP3   OH232522   3.398   1.663   8.583 -0.1482 -0.6148  0.2336
 5317TIP3    H132523   3.413   1.757   8.584 -0.2788 -0.5840 -0.4701
 5317TIP3    H232524   3.403   1.637   8.675  1.3693 -0.1550  0.3202
 5318TIP3   OH232525   0.682   5.643   8.904  0.1468  0.3002 -0.9206
 5318TIP3    H132526   0.657   5.651   8.996 -0.0245 -0.1381 -0.9249
 5318TIP3    H232527   0.667   5.551   8.883 -2.7666  0.9425 -2.2184
 5319TIP3   OH232528   2.138   0.521   9.115 -0.2462 -0.0597 -0.2898
 5319TIP3    H132529   2.202   0.451   9.130  0.0929 -0.1553 -2.0232
 5319TIP3    H232530   2.121   0.518   9.021 -2.3054  0.4224  0.0303
 5320TIP3   OH232531   4.327   1.157   7.223 -0.3118 -0.8262  0.0422
 5320TIP3    H132532   4.358   1.124   7.138 -2.3350 -0.4535 -0.9025
 5320TIP3    H232533   4.367   1.099   7.287  1.0763 -1.2845 -1.1711
 5321TIP3   OH232534   0.938   5.955   2.269 -0.1000 -0.1850  0.4034
 5321TIP3    H132535   1.006   5.888   2.265 -0.3241 -0.3741 -0.3486
 5321TIP3    H232536   0.890   5.937   2.350 -0.2888 -1.0479  0.1011
 5322TIP3   OH232537   0.887   3.192   2.238  0.5078  0.0061  0.6799
 5322TIP3    H132538   0.814   3.132   2.225 -0.4282  0.9328  1.4357
 5322TIP3    H232539   0.897   3.236   2.154 -0.6185  0.7143  0.8872
 5323TIP3   OH232540   5.800   6.344   0.571  0.1796  0.9678  0.1063
 5323TIP3    H132541   5.763   6.369   0.655 -0.0433 -0.2566  0.3848
 5323TIP3    H232542   5.735   6.371   0.507 -0.3200  0.5882  0.4478
 5324TIP3   OH232543   5.983   2.684   1.458  0.5285 -0.3616  0.2803
 5324TIP3    H132544   6.026   2.768   1.442  1.6004 -0.7166  1.1620
 5324TIP3    H232545   5.925   2.672   1.383  0.1951  1.2629  0.2549
 5325TIP3   OH232546   4.960   0.945   8.179 -0.1081 -0.3458 -0.0293
 5325TIP3    H132547   4.992   0.984   8.098  0.5819  0.3698  0.5703
 5325TIP3    H232548   5.033   0.953   8.240 -0.4871 -1.2182  0.5569
 5326TIP3   OH232549   1.944   0.336   1.673 -0.0411 -0.4135  0.7649
 5326TIP3    H132550   2.031   0.363   1.704 -0.2926  0.4754  0.7169
 5326TIP3    H232551   1.885   0.404   1.704 -0.5874 -0.5225 -0.0007
 5327TIP3   OH232552   0.339   6.158   2.095 -0.5121  0.7402 -0.4852
 5327TIP3    H132553   0.254   6.188   2.129  0.9707  1.3005  3.2066
 5327TIP3    H232554   0.384   6.237   2.067 -0.9234  0.5114 -1.8552
 5328TIP3   OH232555   6.127   6.401   0.987  0.8316  0.1381  0.6316
 5328TIP3    H132556   6.220   6.395   0.964  0.7621  1.0227  0.0800
 5328TIP3    H232557   6.102   6.311   1.007  1.8496 -0.0905  0.9708
 5329TIP3   OH232558   2.999   0.568   6.699  0.1591  0.3108  0.2674
 5329TIP3    H132559   2.918   0.604   6.736  0.9368  3.9094 -1.1399
 5329TIP3    H232560   2.971   0.522   6.621 -0.6242  1.2413 -0.0263
 5330TIP3   OH232561   2.779   1.021   8.624  0.3428 -0.3446  0.1177
 5330TIP3    H132562   2.837   1.093   8.598 -2.8662  2.4573  0.0118
 5330TIP3    H232563   2.762   0.973   8.543  2.5765 -1.4457  0.2046
 5331TIP3   OH232564   0.098   5.471   2.271  0.3523  0.4658 -0.1519
 5331TIP3    H132565   0.150   5.404   2.225 -0.5996  0.1325 -0.7934
 5331TIP3    H232566   0.133   5.554   2.240 -0.2504  0.2443 -1.5034
 5332TIP3   OH232567   3.530   1.057   2.805 -0.0239 -0.6404  0.7243
 5332TIP3    H132568   3.588   1.100   2.743 -0.8401  1.8190  1.5659
 5332TIP3    H232569   3.589   1.019   2.871  0.7154 -0.1371  0.3638
 5333TIP3   OH232570   0.735   0.297   8.235  0.2799  0.3636 -0.1258
 5333TIP3    H132571   0.645   0.271   8.256  0.1228  0.0882 -1.0697
 5333TIP3    H232572   0.778   0.305   8.319 -0.2849 -0.7707  0.2953
 5334TIP3   OH232573   1.766   3.404   7.635 -0.9187  0.0830 -0.3081
 5334TIP3    H132574   1.766   3.413   7.730  1.2106 -1.7537 -0.0546
 5334TIP3    H232575   1.732   3.316   7.619  0.7779 -0.4961 -1.0370
 5335TIP3   OH232576   0.039   1.860   1.579 -0.1222  0.7252  0.4077
 5335TIP3    H132577   0.087   1.778   1.563 -0.7339  0.2144  1.0993
 5335TIP3    H232578   0.081   1.896   1.658 -0.5808  0.4953  0.7617
 5336TIP3   OH232579   4.006   1.371   0.651 -0.3877 -0.0755  0.0787
 5336TIP3    H132580   4.093   1.362   0.689 -0.2403  0.7412 -0.0425
 5336TIP3    H232581   3.954   1.413   0.720 -0.0839  1.5398 -0.6313
 5337TIP3   OH232582   1.819   6.084   1.022 -0.1859  0.0352 -0.2483
 5337TIP3    H132583   1.731   6.110   1.050 -0.0406  2.8268 -1.9489
 5337TIP3    H232584   1.857   6.040   1.098 -1.5114  2.6988  2.1497
 5338TIP3   OH232585   3.052   2.932   1.464  0.1317 -0.3414 -0.8593
 5338TIP3    H132586   3.081   3.011   1.419 -0.3901 -0.1988 -0.9458
 5338TIP3    H232587   2.959   2.947   1.483 -0.6576 -1.9605 -3.0912
 5339TIP3   OH232588   2.518   2.376   1.857  0.0636  0.2730  0.1566
 5339TIP3    H132589   2.424   2.390   1.844 -0.2873 -1.6965  0.3221
 5339TIP3    H232590   2.543   2.443   1.921 -1.6233 -0.2733  1.4637
 5340TIP3   OH232591   3.569   0.516   2.073  0.4620  0.1289  0.2299
 5340TIP3    H132592   3.556   0.545   1.983  3.0869  2.9823  0.5853
 5340TIP3    H232593   3.499   0.560   2.122 -0.1523 -0.3326 -0.2155
 5341TIP3   OH232594   0.985   1.699   7.710 -0.5362 -0.0216 -0.1707
 5341TIP3    H132595   0.921   1.675   7.777 -1.5402  1.2569 -0.6061
 5341TIP3    H232596   0.932   1.737   7.640  0.6520  0.4126 -0.8595
 5342TIP3   OH232597   4.140   1.546   8.870 -0.4616 -0.1067 -0.6129
 5342TIP3    H132598   4.080   1.595   8.926  1.9286 -0.2368  2.2614
 5342TIP3    H232599   4.100   1.459   8.863 -2.1225  0.6721 -1.4333
 5343TIP3   OH232600   1.708   0.670   7.447  0.1568  0.5729 -0.7288
 5343TIP3    H132601   1.765   0.677   7.524 -1.7897 -1.0988  0.9997
 5343TIP3    H232602   1.761   0.623   7.383  0.7995 -0.9604  0.8208
 5344TIP3   OH232603   2.173   0.251   0.305 -0.0283 -0.3497 -0.0705
 5344TIP3    H132604   2.127   0.269   0.223  0.9076  0.0696 -0.5158
 5344TIP3    H232605   2.226   0.174   0.286  1.4867  0.7402 -0.3980
 5345TIP3   OH232606   0.339   5.713   1.613  0.3067  0.2569  0.2248
 5345TIP3    H132607   0.385   5.671   1.686 -0.2512 -0.1111  0.3720
 5345TIP3    H232608   0.408   5.755   1.562  0.9013 -0.8988  0.0320
 5346TIP3   OH232609   2.970   5.790   8.936  0.5889  0.0327 -0.2442
 5346TIP3    H132610   3.033   5.719   8.935 -0.5625 -1.0262 -1.1284
 5346TIP3    H232611   3.015   5.863   8.895  1.8219 -0.1341  0.7602
 5347TIP3   OH232612   2.791   6.096   9.122  0.0696  0.0032 -0.0097
 5347TIP3    H132613   2.847   6.112   9.198 -0.9336  1.0767  0.5372
 5347TIP3    H232614   2.773   6.002   9.124  1.3978 -0.2575  0.1136
 5348TIP3   OH232615   1.551   5.302   0.361 -0.5590  0.1097 -0.2803
 5348TIP3    H132616   1.566   5.366   0.291 -2.2668  3.1285  1.8430
 5348TIP3    H232617   1.631   5.307   0.414 -0.3755 -0.1264 -0.5302
 5349TIP3   OH232618   3.469   5.646   7.798 -0.1055 -0.2290  0.1964
 5349TIP3    H132619   3.427   5.725   7.764  0.7293 -0.0070 -0.3738
 5349TIP3    H232620   3.541   5.629   7.737  1.4409  0.1560  1.8094
 5350TIP3   OH232621   1.505   4.221   8.764 -0.5906 -0.2005 -0.0945
 5350TIP3    H132622   1.560   4.242   8.839  0.5387 -0.4681 -0.8237
 5350TIP3    H232623   1.419   4.200   8.801 -0.1468  0.0198  1.0787
 5351TIP3   OH232624   3.201   4.082   8.642 -0.2454  0.1756 -0.5348
 5351TIP3    H132625   3.153   4.109   8.721  0.2944  1.1007 -0.5045
 5351TIP3    H232626   3.227   4.165   8.601  2.2494 -0.2430  0.0412
 5352TIP3   OH232627   0.936   5.806   8.271  0.0835  0.5547 -0.1229
 5352TIP3    H132628   0.867   5.854   8.225 -0.7531 -0.6762 -0.2188
 5352TIP3    H232629   0.909   5.714   8.265  3.5737 -0.5077 -3.3925
 5353TIP3   OH232630   0.335   4.145   7.094 -0.1892  0.4645 -0.3658
 5353TIP3    H132631   0.386   4.192   7.029  0.2647  1.0855  0.4217
 5353TIP3    H232632   0.298   4.070   7.047 -0.1395  1.0824 -1.4003
 5354TIP3   OH232633   5.929   1.331   8.705  0.1593  0.3229 -0.5108
 5354TIP3    H132634   6.003   1.343   8.764  1.0303 -0.0086 -1.4931
 5354TIP3    H232635   5.911   1.419   8.671 -1.7004  0.8966  1.7475
 5355TIP3   OH232636   4.382   2.397   8.278  0.5511 -0.0871 -0.4588
 5355TIP3    H132637   4.400   2.356   8.194 -1.2643 -0.2590 -0.8164
 5355TIP3    H232638   4.288   2.383   8.291  0.7647  0.0500  1.5336
 5356TIP3   OH232639   4.001   1.384   2.180 -0.5968 -0.1995  0.3609
 5356TIP3    H132640   3.972   1.306   2.132 -1.6837 -0.1496  0.9011
 5356TIP3    H232641   3.953   1.456   2.139 -2.2139 -0.2520  2.0051
 5357TIP3   OH232642   5.506   1.657   7.981 -0.0265  0.4563 -0.2602
 5357TIP3    H132643   5.546   1.582   8.025 -0.7623  0.5389  0.5782
 5357TIP3    H232644   5.574   1.690   7.922  0.8062  0.0138  0.4311
 5358TIP3   OH232645   2.977   4.535   0.533  0.1315  0.1353  0.1505
 5358TIP3    H132646   3.006   4.604   0.473  0.5969 -0.2897 -0.1174
 5358TIP3    H232647   3.016   4.558   0.617  2.2662 -1.0492 -0.4556
 5359TIP3   OH232648   5.283   4.352   7.383  0.1210  0.0873  0.1470
 5359TIP3    H132649   5.369   4.333   7.344 -0.2021 -1.4501  0.1110
 5359TIP3    H232650   5.291   4.440   7.418  1.8998 -0.2299  0.6253
 5360TIP3   OH232651   4.096   4.241   0.900  0.3036  0.0061  0.3811
 5360TIP3    H132652   4.108   4.146   0.908  0.3469  0.1065  1.8362
 5360TIP3    H232653   4.165   4.269   0.840  0.2125 -0.8907 -0.1631
 5361TIP3   OH232654   2.127   3.535   1.792  0.0878  0.6228  0.6162
 5361TIP3    H132655   2.041   3.575   1.787  0.1261  0.8906  1.9006
 5361TIP3    H232656   2.139   3.494   1.706 -0.1007  3.0357 -0.6556
 5362TIP3   OH232657   2.839   0.163   1.933 -0.0670 -0.6160  0.0571
 5362TIP3    H132658   2.754   0.119   1.932 -0.5429  0.1813  1.7691
 5362TIP3    H232659   2.833   0.224   2.007  1.9715 -0.4988  0.1598
 5363TIP3   OH232660   2.600   1.621   0.856  0.2251  0.1873  0.0428
 5363TIP3    H132661   2.662   1.648   0.924  1.2886  0.8727 -1.1540
 5363TIP3    H232662   2.605   1.526   0.855  1.6234  0.2499 -0.3414
 5364TIP3   OH232663   0.203   1.663   7.819 -0.0346 -0.3989 -0.8007
 5364TIP3    H132664   0.253   1.732   7.860  0.3733 -1.0251 -0.2297
 5364TIP3    H232665   0.137   1.638   7.884 -0.0542 -0.6834 -0.9253
 5365TIP3   OH232666   1.614   1.497   6.807  0.1042 -0.1148 -0.0049
 5365TIP3    H132667   1.644   1.410   6.781  0.2497  0.1371 -0.7220
 5365TIP3    H232668   1.685   1.532   6.861 -0.7674 -1.1576  1.9031
 5366TIP3   OH232669   2.500   0.410   6.285  0.2824 -0.4085 -0.5948
 5366TIP3    H132670   2.585   0.453   6.280  0.1103  0.4466  2.1215
 5366TIP3    H232671   2.520   0.318   6.298  0.8883 -0.0327  1.4140
 5367TIP3   OH232672   5.339   2.979   1.492 -0.2675  0.7354 -0.4640
 5367TIP3    H132673   5.360   2.903   1.437 -0.0557  0.1267  0.4501
 5367TIP3    H232674   5.419   2.997   1.540 -0.3890  1.4006 -0.5005
 5368TIP3   OH232675   2.766   1.781   7.239  0.3229 -0.1747 -0.1477
 5368TIP3    H132676   2.835   1.838   7.204  1.2544 -1.6485 -0.8329
 5368TIP3    H232677   2.739   1.727   7.164  1.5323 -2.6263  1.0552
 5369TIP3   OH232678   4.107   5.637   2.666  0.2450 -0.1980 -0.1181
 5369TIP3    H132679   4.087   5.656   2.758  2.4991  0.7104  0.2602
 5369TIP3    H232680   4.173   5.568   2.670 -0.3666 -0.8657 -1.1386
 5370TIP3   OH232681   5.255   2.222   8.097 -0.1522 -0.5768 -0.2147
 5370TIP3    H132682   5.279   2.195   8.008 -0.8416 -0.6255 -0.3885
 5370TIP3    H232683   5.301   2.305   8.110 -0.2651 -0.4322 -0.7163
 5371TIP3   OH232684   2.160   1.815   1.496  0.0908 -0.4101  0.4377
 5371TIP3    H132685   2.189   1.815   1.587  0.4545 -0.6136  0.3231
 5371TIP3    H232686   2.126   1.903   1.482  2.1086  0.3854  0.1253
 5372TIP3   OH232687   4.713   1.121   1.365  0.2291  0.2861 -0.5585
 5372TIP3    H132688   4.760   1.054   1.414  2.3901  0.6308 -2.0176
 5372TIP3    H232689   4.705   1.086   1.276 -1.0878  0.8368 -0.6897
 5373TIP3   OH232690   3.028   3.028   2.109 -0.1620  0.4230 -0.1631
 5373TIP3    H132691   3.108   2.975   2.107 -0.7121 -0.4113 -0.6844
 5373TIP3    H232692   3.058   3.116   2.085  0.4175 -0.1573 -1.7456
 5374TIP3   OH232693   2.355   5.097   0.809 -0.6221  0.3253  0.2877
 5374TIP3    H132694   2.430   5.122   0.755  0.7993 -2.9671  0.5196
 5374TIP3    H232695   2.281   5.098   0.749  0.3873 -0.3194 -1.0304
 5375TIP3   OH232696   2.972   2.033   0.135  0.5181 -0.3116  0.1329
 5375TIP3    H132697   2.999   1.992   0.217 -1.3201 -0.9328  0.4717
 5375TIP3    H232698   2.898   1.980   0.105  0.4008  0.6223 -1.3133
 5376TIP3   OH232699   4.394   2.500   1.401 -0.3088  0.0406  0.1426
 5376TIP3    H132700   4.356   2.472   1.318 -0.2102  1.5695 -0.4523
 5376TIP3    H232701   4.402   2.420   1.453 -2.8406 -0.5671 -0.3069
 5377TIP3   OH232702   0.019   6.142   2.658  0.3987 -0.0100  0.1228
 5377TIP3    H132703   0.085   6.206   2.631  1.5128 -0.6944  1.1674
 5377TIP3    H232704  -0.006   6.099   2.577  1.5035  0.0100 -0.2484
 5378TIP3   OH232705   2.237   3.294   8.567  0.0071  0.2706  0.3233
 5378TIP3    H132706   2.219   3.286   8.474 -0.7138  0.9096  0.3948
 5378TIP3    H232707   2.242   3.203   8.599  0.5260  0.0505 -0.3767
 5379TIP3   OH232708   0.749   5.049   6.362  0.0376 -0.1986  0.4047
 5379TIP3    H132709   0.737   5.122   6.301  2.4209 -1.3197 -1.5739
 5379TIP3    H232710   0.831   5.069   6.407  0.5344 -1.4636  0.0851
 5380TIP3   OH232711   5.656   2.486   9.024 -0.4189  0.6188  0.1786
 5380TIP3    H132712   5.634   2.458   8.935  1.3357  1.1046 -0.4505
 5380TIP3    H232713   5.670   2.405   9.073 -1.2940  0.3518  0.0014
 5381TIP3   OH232714   0.989   1.352   2.103 -0.3794 -0.3574  0.3961
 5381TIP3    H132715   1.012   1.272   2.151 -1.2373 -0.8746 -0.0414
 5381TIP3    H232716   1.061   1.412   2.121  0.7498 -1.5461 -0.0281
 5382TIP3   OH232717   5.113   0.889   0.486 -0.0596 -0.3947 -0.2789
 5382TIP3    H132718   5.197   0.856   0.452  0.4889  0.2401  0.4151
 5382TIP3    H232719   5.080   0.946   0.417  0.0301 -0.7123 -0.5906
 5383TIP3   OH232720   2.476   5.842   8.310  0.0205  0.7479  0.3595
 5383TIP3    H132721   2.432   5.757   8.312 -3.0135  2.1973  1.5687
 5383TIP3    H232722   2.518   5.850   8.395  0.6343  0.3387  0.1017
 5384TIP3   OH232723   2.664   5.459   0.442 -0.0685 -0.1255 -0.3512
 5384TIP3    H132724   2.601   5.466   0.371 -1.6666  0.1800  1.0234
 5384TIP3    H232725   2.627   5.513   0.513  1.3495 -0.5694  0.7888
 5385TIP3   OH232726   4.426   3.014   6.639  0.3382  0.0648 -0.0785
 5385TIP3    H132727   4.340   2.997   6.601  0.7409 -0.7299 -0.6590
 5385TIP3    H232728   4.484   3.023   6.563  0.9636 -0.4690  0.3261
 5386TIP3   OH232729   0.012   1.649   8.647  0.8707  0.2553 -0.0014
 5386TIP3    H132730   0.047   1.560   8.642  0.4502  0.0304  0.8352
 5386TIP3    H232731   0.064   1.698   8.583 -0.5618 -1.1109 -2.3646
 5387TIP3   OH232732   4.336   5.224   7.405 -0.6145  0.0349 -0.1283
 5387TIP3    H132733   4.269   5.293   7.405  0.0264  0.8756  3.3605
 5387TIP3    H232734   4.295   5.151   7.452 -0.1840 -0.7561 -0.9485
 5388TIP3   OH232735   3.868   5.792   7.181  0.3959  0.0252 -0.7457
 5388TIP3    H132736   3.911   5.709   7.195  0.2992  0.2240  0.8929
 5388TIP3    H232737   3.774   5.771   7.180  0.1470  0.4301  2.9088
 5389TIP3   OH232738   0.683   1.110   8.555 -0.0615 -0.2044 -0.2366
 5389TIP3    H132739   0.694   1.016   8.544 -0.6000 -0.0401 -3.1841
 5389TIP3    H232740   0.744   1.149   8.492  0.8315  1.4855  1.5725
 5390TIP3   OH232741   3.730   3.516   6.824  0.3082  0.6871 -0.1283
 5390TIP3    H132742   3.688   3.530   6.909 -0.0892 -2.6610  0.3682
 5390TIP3    H232743   3.823   3.505   6.845  0.2068 -0.1624 -0.0637
 5391TIP3   OH232744   0.179   4.352   1.562  0.6265 -0.0581 -0.5320
 5391TIP3    H132745   0.164   4.380   1.652 -0.8434 -1.9389 -0.1317
 5391TIP3    H232746   0.207   4.431   1.516 -1.4146  1.5857  0.9214
 5392TIP3   OH232747   6.470   3.937   8.400 -0.4525  0.4460  0.0796
 5392TIP3    H132748   6.454   3.950   8.494 -0.8162  3.6803 -0.3010
 5392TIP3    H232749   6.394   3.887   8.370 -0.8733  0.2929  1.3220
 5393TIP3   OH232750   2.528   5.180   8.974 -0.2645  0.5166  0.6436
 5393TIP3    H132751   2.486   5.167   8.889  0.2585  1.1254  0.2831
 5393TIP3    H232752   2.459   5.162   9.037 -1.0377  1.3204  0.0639
 5394TIP3   OH232753   3.436   1.266   2.341 -0.0054  0.0733  0.8832
 5394TIP3    H132754   3.441   1.174   2.317 -1.4488 -0.1918  1.5054
 5394TIP3    H232755   3.475   1.270   2.429 -0.1456  0.0185  0.9480
 5395TIP3   OH232756   5.749   2.831   8.933 -0.3074 -0.5650  0.7018
 5395TIP3    H132757   5.790   2.890   8.997  0.9158  0.1997 -0.7209
 5395TIP3    H232758   5.823   2.785   8.893 -1.0299 -0.9129 -0.2620
 5396TIP3   OH232759   1.229   1.439   6.597 -0.2827  0.1178  0.0488
 5396TIP3    H132760   1.225   1.517   6.652  0.6109  0.0399  0.2282
 5396TIP3    H232761   1.230   1.473   6.508 -0.6229  0.2811  0.1051
 5397TIP3   OH232762   6.412   0.476   0.549  1.1015 -0.3497  0.2052
 5397TIP3    H132763   6.471   0.434   0.612  1.1902 -1.8056 -0.7949
 5397TIP3    H232764   6.356   0.532   0.603  1.7300 -0.8878  1.4725
 5398TIP3   OH232765   4.568   3.981   1.597  0.1834  0.4224 -0.6386
 5398TIP3    H132766   4.637   3.977   1.664 -0.5267 -0.2269  0.0721
 5398TIP3    H232767   4.615   3.975   1.514  0.9222 -0.9585 -0.1481
 5399TIP3   OH232768   6.428   5.608   7.790 -0.0735 -0.4031 -0.2054
 5399TIP3    H132769   6.370   5.681   7.811  0.9778  0.2110  0.6818
 5399TIP3    H232770   6.515   5.638   7.815  0.4710 -1.7363 -0.3824
 5400TIP3   OH232771   5.747   5.202   9.296  0.4908 -0.0659  0.1691
 5400TIP3    H132772   5.724   5.110   9.308 -0.9466  0.3571  0.9553
 5400TIP3    H232773   5.711   5.224   9.209  1.4942 -0.4198 -0.3478
 5401TIP3   OH232774   3.965   0.923   8.042  0.4238 -0.5283  0.2321
 5401TIP3    H132775   4.059   0.934   8.057  0.4930 -0.3424 -0.3134
 5401TIP3    H232776   3.936   1.009   8.011  0.8054 -1.5285 -3.3207
 5402TIP3   OH232777   2.674   0.536   9.334 -0.1799  0.0174 -0.3116
 5402TIP3    H132778   2.691   0.630   9.338  1.1981 -0.1716 -1.1372
 5402TIP3    H232779   2.579   0.529   9.325 -0.1613  1.4045 -2.0779
 5403TIP3   OH232780   1.706   5.822   1.963 -0.1394  0.0877  0.1711
 5403TIP3    H132781   1.670   5.782   2.042 -1.3689  0.8802  0.0354
 5403TIP3    H232782   1.633   5.821   1.901  0.9978 -1.1948 -1.2283
 5404TIP3   OH232783   2.913   0.178   0.848 -0.0893 -0.0224 -0.1882
 5404TIP3    H132784   2.891   0.172   0.941 -0.8784  1.4915 -0.2432
 5404TIP3    H232785   2.892   0.092   0.812  2.2506 -1.3559  1.3983
 5405TIP3   OH232786   3.117   5.383   0.487 -0.0220 -0.0914 -0.0017
 5405TIP3    H132787   3.089   5.313   0.546 -0.9236  0.4453  0.2237
 5405TIP3    H232788   3.088   5.464   0.530 -0.1486  0.3459 -0.8928
 5406TIP3   OH232789   4.052   5.892   8.054  0.0605 -0.0347 -0.3063
 5406TIP3    H132790   3.997   5.823   8.092 -0.0079 -0.8805 -1.8459
 5406TIP3    H232791   4.134   5.848   8.031  0.4720  0.6683 -0.2091
 5407TIP3   OH232792   1.326   1.741   2.227  0.2884 -0.3441 -0.9024
 5407TIP3    H132793   1.358   1.831   2.241  0.6601 -0.2936 -1.9676
 5407TIP3    H232794   1.380   1.688   2.285  0.4904  0.0519 -0.7210
 5408TIP3   OH232795   1.497   6.177   6.616  0.0872  0.4937 -0.4694
 5408TIP3    H132796   1.447   6.143   6.691  0.7685 -0.6926 -0.5368
 5408TIP3    H232797   1.523   6.100   6.567  1.1968  1.1484 -0.9540
 5409TIP3   OH232798   1.298   2.849   9.365 -0.5020  0.5244  0.0289
 5409TIP3    H132799   1.239   2.776   9.343 -1.5820  1.5183 -0.5206
 5409TIP3    H232800   1.345   2.868   9.284 -0.1745  0.3927  0.1883
 5410TIP3   OH232801   0.505   0.434   2.082 -0.3540 -0.4426 -0.3792
 5410TIP3    H132802   0.520   0.467   1.993 -1.8002  0.0861 -0.4546
 5410TIP3    H232803   0.590   0.401   2.110  0.8834  2.1057 -0.8336
 5411TIP3   OH232804   0.467   5.367   9.143  0.3456 -0.6132 -0.2623
 5411TIP3    H132805   0.432   5.339   9.058 -1.0210 -0.0261  0.0755
 5411TIP3    H232806   0.495   5.286   9.185 -0.1454 -1.0537 -0.7644
 5412TIP3   OH232807   4.768   4.169   7.403 -0.1322  0.8267 -0.9756
 5412TIP3    H132808   4.862   4.160   7.420 -0.1652  1.1792 -0.5935
 5412TIP3    H232809   4.764   4.219   7.321  0.0152  2.0688 -0.2570
 5413TIP3   OH232810   2.785   4.524   1.070 -0.1943  0.0252  0.0864
 5413TIP3    H132811   2.743   4.507   1.155 -1.8892  1.2188 -0.4534
 5413TIP3    H232812   2.730   4.591   1.030 -0.1340 -1.3565 -2.4910
 5414TIP3   OH232813   4.501   0.178   7.714 -0.0284  1.2001 -0.1990
 5414TIP3    H132814   4.529   0.190   7.623 -0.9779  2.2448 -0.3703
 5414TIP3    H232815   4.525   0.087   7.734  1.2992  1.3284 -1.0855
 5415TIP3   OH232816   2.825   4.578   7.936  0.2652  0.1323  0.4607
 5415TIP3    H132817   2.778   4.513   7.987  0.8374 -0.5733  0.1128
 5415TIP3    H232818   2.766   4.600   7.864 -1.3563  2.5433  2.3545
 5416TIP3   OH232819   2.458   2.304   1.566 -0.3372  0.0081 -0.3111
 5416TIP3    H132820   2.533   2.335   1.616 -0.1064  1.4544 -1.4594
 5416TIP3    H232821   2.496   2.266   1.487 -0.6440 -3.0823  0.9002
 5417TIP3   OH232822   4.296   2.904   8.586 -0.3769 -0.2347 -0.8341
 5417TIP3    H132823   4.251   2.985   8.560  2.7680  1.8059 -0.4947
 5417TIP3    H232824   4.293   2.904   8.682  0.1318 -0.1861 -0.8144
 5418TIP3   OH232825   4.086   5.689   2.223 -0.0319  0.1406 -0.1873
 5418TIP3    H132826   4.050   5.606   2.253 -1.4668  0.4467 -0.9438
 5418TIP3    H232827   4.094   5.679   2.128  0.2597  0.6894 -0.2288
 5419TIP3   OH232828   5.826   4.501   1.321 -0.8918 -0.1771  0.4735
 5419TIP3    H132829   5.748   4.469   1.275 -0.3077 -0.9540 -0.0163
 5419TIP3    H232830   5.824   4.455   1.405 -0.6689 -0.6612  0.2260
 5420TIP3   OH232831   6.036   1.299   7.137  0.2928 -0.3572 -0.1645
 5420TIP3    H132832   6.046   1.212   7.099 -2.0982 -0.3466 -1.0321
 5420TIP3    H232833   6.042   1.286   7.231  0.8640 -1.2948 -0.3176
 5421TIP3   OH232834   2.388   5.851   8.891  0.2521 -0.4804  0.6896
 5421TIP3    H132835   2.479   5.872   8.871  0.6912 -1.1549  1.9151
 5421TIP3    H232836   2.349   5.830   8.806  0.4543  2.5551 -0.2953
 5422TIP3   OH232837   1.909   2.697   7.569 -0.2278  0.0325  0.3542
 5422TIP3    H132838   1.917   2.613   7.524 -1.7692 -1.0497  1.9679
 5422TIP3    H232839   1.956   2.685   7.652  1.6353  1.6337 -0.3870
 5423TIP3   OH232840   5.656   6.037   0.706 -0.0167 -0.6536  0.7161
 5423TIP3    H132841   5.650   5.944   0.683 -1.7109 -0.0893 -1.5254
 5423TIP3    H232842   5.728   6.070   0.653 -0.3521 -0.4326  0.3881
 5424TIP3   OH232843   1.332   3.225   7.758  0.0703 -0.2584  0.3971
 5424TIP3    H132844   1.385   3.207   7.836  1.2180 -1.8719 -0.6895
 5424TIP3    H232845   1.381   3.291   7.709  0.8279 -1.3239 -0.3208
 5425TIP3   OH232846   4.790   5.519   8.582  0.4795 -0.0127 -0.1838
 5425TIP3    H132847   4.695   5.520   8.572  0.5323  0.1674 -0.7442
 5425TIP3    H232848   4.822   5.564   8.504  0.9994  0.5093  0.3224
 5426TIP3   OH232849   0.091   3.574   0.543  0.0200  0.2193  0.7363
 5426TIP3    H132850   0.138   3.491   0.549  0.5129  0.5233  1.2484
 5426TIP3    H232851   0.025   3.569   0.612  0.5459  0.5479  1.2769
 5427TIP3   OH232852   3.108   2.699   2.287  0.0511  0.1827  0.4623
 5427TIP3    H132853   3.094   2.704   2.382 -0.7357  1.1938  0.3167
 5427TIP3    H232854   3.022   2.677   2.251 -0.2607  2.2117 -0.1619
 5428TIP3   OH232855   5.741   0.702   6.487  0.9347  0.1687 -0.4719
 5428TIP3    H132856   5.827   0.681   6.449  0.8670  1.1288 -1.2181
 5428TIP3    H232857   5.761   0.764   6.557  0.9556 -0.6424  0.2440
 5429TIP3   OH232858   4.898   3.568   8.389 -0.7242 -0.3628 -0.1054
 5429TIP3    H132859   4.837   3.599   8.456  0.5526  2.7092 -0.2049
 5429TIP3    H232860   4.949   3.500   8.432 -0.4946  0.9624  1.8070
 5430TIP3   OH232861   2.034   2.942   2.286 -0.1435  0.0550  0.4088
 5430TIP3    H132862   2.020   3.025   2.331  0.7559  0.4124  0.0519
 5430TIP3    H232863   2.105   2.900   2.335  0.9228  0.4959 -0.6788
 5431TIP3   OH232864   4.648   3.960   1.282  0.2242  0.0379 -0.2281
 5431TIP3    H132865   4.676   3.971   1.191 -2.4431 -0.7876 -1.2303
 5431TIP3    H232866   4.601   4.040   1.303 -1.4351 -0.8152 -0.5303
 5432TIP3   OH232867   5.012   1.996   7.263 -0.4900  1.0573 -0.4268
 5432TIP3    H132868   5.093   1.948   7.277 -0.2171  0.9908 -2.0425
 5432TIP3    H232869   5.039   2.080   7.225 -1.1434  1.1487 -0.7111
 5433TIP3   OH232870   0.559   5.862   8.827  0.5460  0.3674 -0.6808
 5433TIP3    H132871   0.606   5.788   8.865  0.8841  1.3886  0.9807
 5433TIP3    H232872   0.608   5.884   8.748 -0.3396 -1.9844 -2.0117
 5434TIP3   OH232873   1.765   4.548   8.561 -0.2041  0.2162  0.1479
 5434TIP3    H132874   1.828   4.618   8.545 -0.0131  0.6815  2.5424
 5434TIP3    H232875   1.695   4.590   8.612 -0.3006 -1.2041  1.2509
 5435TIP3   OH232876   1.205   5.125   0.655 -0.1713 -0.4699 -0.1412
 5435TIP3    H132877   1.202   5.034   0.687 -0.4901 -0.6232 -0.5890
 5435TIP3    H232878   1.117   5.159   0.674  0.2048  0.0228  0.7933
 5436TIP3   OH232879   3.675   2.576   0.603 -0.0377  0.9315  0.3416
 5436TIP3    H132880   3.722   2.532   0.532 -0.8482  0.4007  0.1137
 5436TIP3    H232881   3.740   2.584   0.673  0.0968 -0.9029  0.4902
 5437TIP3   OH232882   0.232   4.412   2.269 -0.2873  0.2166 -0.5349
 5437TIP3    H132883   0.306   4.432   2.211  1.0220  0.4923  1.1716
 5437TIP3    H232884   0.182   4.494   2.273  0.2264  0.5313 -0.4231
 5438TIP3   OH232885   0.253   4.457   8.522 -0.6560  1.2758  0.6202
 5438TIP3    H132886   0.202   4.480   8.444 -0.8874  1.8103  0.9214
 5438TIP3    H232887   0.329   4.411   8.488 -0.6570  1.6757  0.0560
 5439TIP3   OH232888   5.559   5.354   7.809  0.7516 -0.1187 -0.2444
 5439TIP3    H132889   5.570   5.366   7.715  2.0201 -0.9799 -0.2308
 5439TIP3    H232890   5.478   5.304   7.818  1.6439 -1.7878 -1.0462
 5440TIP3   OH232891   1.743   3.594   3.202 -0.0145 -0.1128  0.8070
 5440TIP3    H132892   1.706   3.519   3.249  0.2210  0.7452  2.4454
 5440TIP3    H232893   1.669   3.633   3.156 -0.1453 -1.3142 -0.0368
 5441TIP3   OH232894   1.358   1.240   8.207 -0.5506 -0.0033  0.3091
 5441TIP3    H132895   1.329   1.154   8.238 -0.3656 -0.7785 -1.5516
 5441TIP3    H232896   1.436   1.222   8.155  0.6658  1.5472  1.5228
 5442TIP3   OH232897   1.515   6.358   9.128  0.4541  0.1076 -0.5358
 5442TIP3    H132898   1.450   6.293   9.155 -1.2985  1.8456 -0.3685
 5442TIP3    H232899   1.596   6.331   9.172  0.7305 -3.6885 -2.8672
 5443TIP3   OH232900   5.725   3.383   0.761  0.1397  0.1654 -0.0949
 5443TIP3    H132901   5.793   3.321   0.733 -2.0475 -2.3106 -0.3395
 5443TIP3    H232902   5.720   3.446   0.690  2.6108  0.8674  0.2613
 5444TIP3   OH232903   0.964   5.093   7.276 -0.0881 -0.3504  0.5313
 5444TIP3    H132904   0.959   5.188   7.266  0.6546 -0.3513  0.1048
 5444TIP3    H232905   1.056   5.075   7.294  0.2878 -1.2010 -1.8668
 5445TIP3   OH232906   3.954   1.425   9.338  0.0213 -0.0930 -0.2399
 5445TIP3    H132907   4.023   1.486   9.313 -0.3282  0.5850  0.4380
 5445TIP3    H232908   3.994   1.369   9.404  0.6744 -1.3239 -1.6086
 5446TIP3   OH232909   2.448   1.248   8.640 -0.2670 -0.4272  0.0296
 5446TIP3    H132910   2.499   1.277   8.564  1.0768 -0.1878  0.9976
 5446TIP3    H232911   2.495   1.282   8.716 -1.9140 -0.1317  0.9793
 5447TIP3   OH232912   3.551   6.169   9.216  0.4256 -0.7673 -0.0182
 5447TIP3    H132913   3.590   6.255   9.232  0.8275 -1.0271  0.4434
 5447TIP3    H232914   3.613   6.124   9.159 -0.8221  0.0155 -2.1111
 5448TIP3   OH232915   4.197   0.258   8.703  0.0848  0.0768 -0.0129
 5448TIP3    H132916   4.283   0.290   8.729  0.2147  1.7299 -2.1618
 5448TIP3    H232917   4.207   0.233   8.611 -1.7156  0.3832 -0.3417
 5449TIP3   OH232918   3.414   5.901   0.352 -0.6941  0.3460  0.5407
 5449TIP3    H132919   3.438   5.837   0.419 -2.5764 -1.1895 -0.1215
 5449TIP3    H232920   3.329   5.870   0.320 -0.1336  1.2898 -2.1686
 5450TIP3   OH232921   0.868   4.889   8.615  0.7112  0.3868 -0.2618
 5450TIP3    H132922   0.847   4.800   8.587 -1.7979  0.2181  1.7294
 5450TIP3    H232923   0.953   4.881   8.658  0.1165 -1.3137  0.7178
 5451TIP3   OH232924   1.542   2.397   0.941 -0.2240  0.0374 -0.5648
 5451TIP3    H132925   1.519   2.394   0.848 -2.0433 -0.6992 -0.1265
 5451TIP3    H232926   1.463   2.369   0.986  1.0272 -0.9053  1.1563
 5452TIP3   OH232927   5.316   0.870   7.746 -0.2186  0.1622  0.7318
 5452TIP3    H132928   5.315   0.934   7.674  0.6892 -2.0159 -1.3501
 5452TIP3    H232929   5.297   0.922   7.824  3.0797  3.4679 -0.3830
 5453TIP3   OH232930   2.826   5.473   2.355  0.3044  0.4799 -0.1652
 5453TIP3    H132931   2.887   5.404   2.382  0.8925  0.6916 -0.9301
 5453TIP3    H232932   2.868   5.514   2.280 -0.4165  1.1567 -0.2061
 5454TIP3   OH232933   1.828   2.426   0.906  0.6151  0.0870  0.2645
 5454TIP3    H132934   1.735   2.408   0.902  0.2852  1.5561  0.7029
 5454TIP3    H232935   1.858   2.383   0.986 -0.2214  1.6507  1.4891
 5455TIP3   OH232936   3.971   1.669   2.443  0.1979  0.2095  0.3896
 5455TIP3    H132937   3.929   1.639   2.524  1.3721  0.0537  0.9596
 5455TIP3    H232938   3.960   1.596   2.382 -1.5928  0.7112  0.0357
 5456TIP3   OH232939   6.298   0.689   6.969 -0.2256 -0.9499 -0.2229
 5456TIP3    H132940   6.334   0.672   6.882  0.2504  0.8334 -0.4161
 5456TIP3    H232941   6.208   0.717   6.953  0.1544  0.3256 -0.2606
 5457TIP3   OH232942   6.245   4.577   1.550  0.4191  0.1546  0.3201
 5457TIP3    H132943   6.166   4.619   1.516  1.2647  0.8936 -0.7923
 5457TIP3    H232944   6.287   4.538   1.474  0.9922 -0.4947  0.9459
 5458TIP3   OH232945   3.574   3.425   8.477 -0.1359  0.1093  0.1406
 5458TIP3    H132946   3.490   3.465   8.458  0.3536  1.3084  0.3974
 5458TIP3    H232947   3.638   3.480   8.431  0.6745  0.4178  1.5564
 5459TIP3   OH232948   2.470   2.348   8.953 -0.1687  0.3187 -0.0958
 5459TIP3    H132949   2.398   2.333   8.891 -1.0643  1.1876  0.7078
 5459TIP3    H232950   2.434   2.324   9.038  1.2481 -1.4738  0.0722
 5460TIP3   OH232951   6.215   6.422   7.998  0.0197 -0.1335 -0.3433
 5460TIP3    H132952   6.198   6.435   7.905  3.1767  0.5157 -0.9379
 5460TIP3    H232953   6.157   6.350   8.023 -1.6897  0.3860 -2.5049
 5461TIP3   OH232954   0.985   1.915   0.292 -0.2183  0.0046  1.1591
 5461TIP3    H132955   0.916   1.953   0.346 -2.0019 -0.0104 -1.0012
 5461TIP3    H232956   0.942   1.890   0.211  2.2180 -0.6054 -0.0436
 5462TIP3   OH232957   4.684   3.555   8.204  0.5341 -0.0164  0.4202
 5462TIP3    H132958   4.748   3.546   8.275 -0.7750 -1.7009  1.4259
 5462TIP3    H232959   4.718   3.499   8.134  1.0726  0.5245  0.2316
 5463TIP3   OH232960   3.150   0.698   6.917  0.0354 -0.4418  0.6069
 5463TIP3    H132961   3.122   0.649   6.840  0.2524 -1.1701  0.9870
 5463TIP3    H232962   3.068   0.726   6.959 -0.0833 -0.1612  0.1956
 5464TIP3   OH232963   0.751   4.838   1.203 -0.4932 -0.1980  0.0071
 5464TIP3    H132964   0.744   4.912   1.262 -1.5934  0.9720 -1.4998
 5464TIP3    H232965   0.840   4.841   1.169 -1.2765  2.2284 -2.1498
 5465TIP3   OH232966   4.778   2.130   0.721 -0.4584 -0.4134  0.0988
 5465TIP3    H132967   4.745   2.138   0.811 -1.3355 -2.3524  0.0029
 5465TIP3    H232968   4.814   2.041   0.717  0.2945 -0.0674 -1.2472
 5466TIP3   OH232969   0.376   1.307   0.734 -0.0466  0.0520 -0.2301
 5466TIP3    H132970   0.463   1.291   0.699 -0.7383 -1.1440 -1.4797
 5466TIP3    H232971   0.382   1.394   0.775  1.9002 -0.3090  0.3531
 5467TIP3   OH232972   1.001   5.530   9.052 -0.1011  0.4327  0.5508
 5467TIP3    H132973   1.089   5.557   9.080  0.0325  1.1998 -0.5347
 5467TIP3    H232974   1.007   5.527   8.956 -1.1440  0.0729  0.4880
 5468TIP3   OH232975   5.543   4.198   7.237  0.1128 -0.8208  0.0576
 5468TIP3    H132976   5.575   4.283   7.265 -0.5140 -0.0725 -1.3447
 5468TIP3    H232977   5.481   4.218   7.167 -1.1574 -2.3575  0.6773
 5469TIP3   OH232978   5.195   2.891   0.118  0.3827 -0.1616  0.1598
 5469TIP3    H132979   5.142   2.817   0.149  0.8818 -1.3429 -1.6126
 5469TIP3    H232980   5.152   2.917   0.036  0.5623  1.1427  0.4684
 5470TIP3   OH232981   3.756   1.884   2.422  0.1648 -0.0304  0.0521
 5470TIP3    H132982   3.734   1.876   2.515 -0.3993  0.3215 -0.0497
 5470TIP3    H232983   3.803   1.803   2.402  0.6083  0.0487  0.7266
 5471TIP3   OH232984   6.279   3.581   7.987 -0.1795 -0.1270 -0.7458
 5471TIP3    H132985   6.195   3.625   7.993  0.5789  1.2429  0.6670
 5471TIP3    H232986   6.277   3.515   8.056  1.2307  2.4751  2.0196
 5472TIP3   OH232987   2.480   3.653   8.875  0.2057 -0.1212  0.1505
 5472TIP3    H132988   2.471   3.746   8.895  0.4614 -0.2754  0.9981
 5472TIP3    H232989   2.487   3.650   8.779  0.7642  0.7780  0.1530
 5473TIP3   OH232990   5.940   1.234   1.287  0.5671  0.2236  0.1228
 5473TIP3    H132991   5.934   1.158   1.344  0.1385  0.1755  0.0217
 5473TIP3    H232992   5.944   1.198   1.198  0.2734  0.3169  0.0699
 5474TIP3   OH232993   2.893   0.419   0.719  0.0423  0.0167 -0.1421
 5474TIP3    H132994   2.846   0.407   0.637  0.5975 -0.7320 -0.3559
 5474TIP3    H232995   2.910   0.331   0.750  3.3343  0.1498 -1.2151
 5475TIP3   OH232996   6.178   5.566   8.997 -0.7643  0.0988  0.4223
 5475TIP3    H132997   6.163   5.589   9.089  1.6558  2.1990  0.4295
 5475TIP3    H232998   6.274   5.562   8.989 -0.9364 -1.5982 -1.7019
 5476TIP3   OH232999   3.140   5.050   8.975 -0.2453 -0.6608  0.1101
 5476TIP3    H133000   3.165   5.142   8.989 -2.7183  0.4845 -2.0188
 5476TIP3    H233001   3.113   5.019   9.062  2.2912 -0.0162  1.2161
 5477TIP3   OH233002   1.837   1.083   6.785  0.2743  0.1969 -0.1060
 5477TIP3    H133003   1.827   1.066   6.879 -0.0461 -1.8362 -0.4558
 5477TIP3    H233004   1.906   1.024   6.757 -2.6084 -2.6792 -1.9170
 5478TIP3   OH233005   1.841   2.505   1.372 -0.0265  0.3788 -0.3360
 5478TIP3    H133006   1.753   2.539   1.387 -0.2388 -0.4870  0.4275
 5478TIP3    H233007   1.898   2.555   1.431  0.0451  1.1145 -1.0124
 5479TIP3   OH233008   3.137   3.996   1.619 -0.3904 -0.2588  0.0220
 5479TIP3    H133009   3.231   4.012   1.632 -0.5576 -0.3140  1.5086
 5479TIP3    H233010   3.099   4.084   1.615 -0.4349 -0.2264  0.8979
 5480TIP3   OH233011   3.278   4.158   6.859 -0.7161 -0.0931  0.2093
 5480TIP3    H133012   3.372   4.161   6.839 -0.6542  0.3621  0.5590
 5480TIP3    H233013   3.272   4.102   6.936 -0.3268  2.5265  2.3177
 5481TIP3   OH233014   5.237   5.406   1.633 -0.6256 -0.1164 -0.5923
 5481TIP3    H133015   5.243   5.443   1.721  0.4598  0.2423 -0.8014
 5481TIP3    H233016   5.145   5.418   1.608 -0.6409  1.0170 -0.0400
 5482TIP3   OH233017   0.566   2.632   7.150 -0.5278 -0.1855 -0.2574
 5482TIP3    H133018   0.605   2.707   7.195 -1.4224 -0.3769  0.8869
 5482TIP3    H233019   0.640   2.587   7.109  0.1205  0.8487 -0.2576
 5483TIP3   OH233020   4.143   2.705   2.409  0.1185  0.7864  0.0643
 5483TIP3    H133021   4.145   2.715   2.504 -0.6263  1.7328 -0.0096
 5483TIP3    H233022   4.173   2.789   2.375 -1.1838  1.0217 -0.5458
 5484TIP3   OH233023   1.085   3.786   2.141 -0.2628  0.1024 -0.4907
 5484TIP3    H133024   1.110   3.733   2.217 -2.5870  0.9781  0.9691
 5484TIP3    H233025   0.995   3.760   2.121 -0.2026  0.9321 -2.0564
 5485TIP3   OH233026   5.218   6.375   1.729  0.6089  0.3356 -0.4681
 5485TIP3    H133027   5.162   6.423   1.668 -1.1419  0.1780  0.9309
 5485TIP3    H233028   5.289   6.436   1.750  0.0788  1.1636 -1.0319
 5486TIP3   OH233029   1.224   3.302   8.903 -0.3147  0.2909  0.6747
 5486TIP3    H133030   1.160   3.233   8.917  2.3325 -2.4158  0.4687
 5486TIP3    H233031   1.222   3.318   8.809  0.1889 -0.7374  0.4794
 5487TIP3   OH233032   5.815   2.196   0.001 -0.4673 -1.0605 -0.1068
 5487TIP3    H133033   5.845   2.285   0.016  1.8927 -1.6193 -1.1172
 5487TIP3    H233034   5.792   2.163   0.088 -1.1812  0.4189  0.3006
 5488TIP3   OH233035   5.695   5.812   8.368  0.4578  0.0992 -0.2998
 5488TIP3    H133036   5.639   5.860   8.429 -0.4359 -0.7598 -0.4173
 5488TIP3    H233037   5.781   5.853   8.377 -0.4171  2.2013 -0.9337
 5489TIP3   OH233038   5.163   4.891   8.509  0.4753 -0.7299 -0.3850
 5489TIP3    H133039   5.184   4.983   8.524 -0.3487 -0.2563 -1.8326
 5489TIP3    H233040   5.245   4.844   8.524  0.8677  0.2180  0.5200
 5490TIP3   OH233041   2.919   1.390   0.535 -0.5413  0.1881  0.5916
 5490TIP3    H133042   2.893   1.400   0.444 -1.4265 -0.8043  0.7175
 5490TIP3    H233043   2.900   1.474   0.576 -0.1970  0.6170 -0.1121
 5491TIP3   OH233044   4.526   4.819   2.545 -0.3401  0.4652 -0.1581
 5491TIP3    H133045   4.525   4.819   2.641  0.4653  1.7024 -0.1284
 5491TIP3    H233046   4.486   4.902   2.521 -1.3574 -0.2220 -0.9447
 5492TIP3   OH233047   2.580   1.331   0.951  0.2260  0.5571  0.2521
 5492TIP3    H133048   2.603   1.330   0.858 -0.8280 -0.3450 -0.0210
 5492TIP3    H233049   2.614   1.249   0.985  1.2842  1.2213  0.8634
 5493TIP3   OH233050   3.483   3.084   0.410 -0.6760  0.7126  0.1131
 5493TIP3    H133051   3.435   3.031   0.346  0.6991  0.5354 -0.8483
 5493TIP3    H233052   3.467   3.174   0.384 -1.3459  0.6974  0.4651
 5494TIP3   OH233053   1.487   1.972   9.170 -0.5971 -0.4258  0.6899
 5494TIP3    H133054   1.537   2.048   9.200 -0.3328 -0.7302  1.0328
 5494TIP3    H233055   1.446   1.937   9.250 -1.4017 -0.1548  0.4096
 5495TIP3   OH233056   5.286  -0.006   7.784 -0.3550  0.0267  0.1451
 5495TIP3    H133057   5.308   0.040   7.703  0.1158 -2.0325 -0.9545
 5495TIP3    H233058   5.371  -0.029   7.822 -0.5540  1.4228  1.5501
 5496TIP3   OH233059   1.048   3.769   8.613 -0.5593  0.2393  0.7883
 5496TIP3    H133060   1.008   3.804   8.534 -0.3752 -0.3228  0.4434
 5496TIP3    H233061   0.976   3.728   8.661 -0.5011 -0.2722  0.4426
 5497TIP3   OH233062   4.261   1.049   6.794 -0.1178 -0.0482 -0.4076
 5497TIP3    H133063   4.249   0.961   6.757 -1.8180  0.0698 -0.2169
 5497TIP3    H233064   4.330   1.038   6.860  0.4327 -1.0014 -1.1125
 5498TIP3   OH233065   2.983   2.016   1.544 -0.3087 -0.3357 -0.0334
 5498TIP3    H133066   2.969   1.923   1.526  0.6375 -0.5034  0.0581
 5498TIP3    H233067   2.901   2.045   1.585 -0.3296 -1.3026  0.6455
 5499TIP3   OH233068   0.861   6.211   6.235 -0.1840 -0.1296  0.0385
 5499TIP3    H133069   0.945   6.221   6.190 -0.5843  0.1218 -0.6732
 5499TIP3    H233070   0.852   6.117   6.248  1.0093 -0.0486  1.7015
 5500TIP3   OH233071   3.559   3.932   9.197 -0.5754 -0.3393 -0.0402
 5500TIP3    H133072   3.541   3.985   9.120 -2.0957 -0.4665  0.1958
 5500TIP3    H233073   3.542   3.842   9.168 -1.1127 -0.3915  0.4199
 5501TIP3   OH233074   1.510   2.882   0.426  0.0901  0.0526 -0.4968
 5501TIP3    H133075   1.429   2.914   0.387 -0.3634 -0.2392  0.1931
 5501TIP3    H233076   1.492   2.791   0.449  0.6522 -0.0514 -0.4375
 5502TIP3   OH233077   5.849   0.816   7.969  0.5178 -0.2621 -0.2350
 5502TIP3    H133078   5.852   0.725   7.997  0.5978  0.6507  3.1295
 5502TIP3    H233079   5.755   0.836   7.964  0.4788 -0.0671  0.9312
 5503TIP3   OH233080   5.268   1.510   8.082 -0.1178 -0.0479 -0.0375
 5503TIP3    H133081   5.200   1.482   8.144 -0.4494 -1.3974 -0.9660
 5503TIP3    H233082   5.302   1.592   8.119 -1.8027  0.3317  0.7799
 5504TIP3   OH233083   0.826   5.801   0.863  0.1852  0.0209 -0.8644
 5504TIP3    H133084   0.875   5.870   0.818 -0.2820 -0.4275 -2.0863
 5504TIP3    H233085   0.775   5.759   0.795 -1.9337  0.4495  0.3701
 5505TIP3   OH233086   2.776   5.445   3.307  0.0843  0.1852  0.1505
 5505TIP3    H133087   2.822   5.375   3.354 -1.7803 -0.0968  1.6831
 5505TIP3    H233088   2.777   5.416   3.216  1.5021 -0.5876  0.3741
 5506TIP3   OH233089   0.727   6.065   9.048 -0.3598 -0.6495 -0.1523
 5506TIP3    H133090   0.748   6.157   9.064 -2.1644 -0.4539  1.3776
 5506TIP3    H233091   0.755   6.019   9.127 -2.1267 -0.9414  0.3333
 5507TIP3   OH233092   2.780   2.979   1.442 -0.4582  0.4999  0.3804
 5507TIP3    H133093   2.701   2.927   1.431  0.0338 -0.4343  1.1605
 5507TIP3    H233094   2.795   3.018   1.356 -0.6214 -0.9415 -0.3317
 5508TIP3   OH233095   1.641   5.505   9.089 -0.1455 -0.1027  0.0204
 5508TIP3    H133096   1.721   5.507   9.142 -0.7027 -0.4940  0.8885
 5508TIP3    H233097   1.597   5.424   9.116 -1.0974  0.3768 -0.0650
 5509TIP3   OH233098   4.158   3.372   7.145 -0.0894  0.3101 -0.1080
 5509TIP3    H133099   4.170   3.450   7.200 -1.3245  0.1140  0.4877
 5509TIP3    H233100   4.091   3.397   7.082 -1.1737 -0.5317  0.6708
 5510TIP3   OH233101   1.436   4.836   8.839  0.0536 -0.4066 -1.0053
 5510TIP3    H133102   1.421   4.931   8.840 -0.5917 -0.4991 -1.1137
 5510TIP3    H233103   1.462   4.815   8.928 -1.2563 -0.3345 -0.5739
 5511TIP3   OH233104   3.255   1.107   0.121  0.0169 -0.3376  0.1835
 5511TIP3    H133105   3.321   1.117   0.189  1.2762 -1.6405 -0.7900
 5511TIP3    H233106   3.301   1.064   0.048 -1.6091 -0.2189 -0.9772
 5512TIP3   OH233107   5.555   6.372   9.014 -0.6223  0.6798 -0.3702
 5512TIP3    H133108   5.644   6.394   8.986 -1.5514  1.3753 -3.1645
 5512TIP3    H233109   5.512   6.457   9.024 -1.0548  0.3441  0.7928
 5513TIP3   OH233110   1.811   2.067   8.546  0.0443 -0.3412 -0.0903
 5513TIP3    H133111   1.780   2.126   8.477  1.6187 -1.5329 -1.9187
 5513TIP3    H233112   1.905   2.083   8.551  0.3311 -1.9595  0.1075
 5514TIP3   OH233113   6.164   2.930   1.477  0.0091  0.1845  0.1528
 5514TIP3    H133114   6.235   2.866   1.478 -0.3815 -0.2598  0.3097
 5514TIP3    H233115   6.163   2.964   1.387 -1.2872 -1.7860 -0.6638
 5515TIP3   OH233116   1.482   2.864   0.136  0.6481 -0.2915  0.4666
 5515TIP3    H133117   1.495   2.776   0.172  0.7443 -0.7235 -0.5938
 5515TIP3    H233118   1.425   2.851   0.061 -1.2233  0.8521  1.6147
 5516TIP3   OH233119   5.103   3.549   0.206  0.0154 -0.0388  0.5169
 5516TIP3    H133120   5.088   3.475   0.148 -0.4865  1.4662 -1.3808
 5516TIP3    H233121   5.017   3.570   0.242  0.5827 -2.1052  3.4219
 5517TIP3   OH233122   4.119   0.971   2.141  0.2123 -0.1906 -0.6673
 5517TIP3    H133123   4.182   1.035   2.108 -0.1823 -0.1216 -1.3009
 5517TIP3    H233124   4.171   0.891   2.154  0.5098 -0.0208 -0.8031
 5518TIP3   OH233125   0.820   3.975   9.010  0.2891  0.3525  0.2556
 5518TIP3    H133126   0.791   3.921   9.084  0.4547 -2.1247 -1.3844
 5518TIP3    H233127   0.777   3.937   8.934 -0.0303  2.9603 -0.9734
 5519TIP3   OH233128   5.863   1.960   9.103 -0.3076 -0.1145  0.2584
 5519TIP3    H133129   5.921   1.892   9.137 -0.8170 -1.1875 -0.9727
 5519TIP3    H233130   5.901   2.042   9.136  1.2887 -0.8620  0.3656
 5520TIP3   OH233131   2.532   1.415   9.305  0.3875  0.5279  0.0378
 5520TIP3    H133132   2.516   1.321   9.293  1.4821 -0.0116  2.2317
 5520TIP3    H233133   2.616   1.430   9.262 -0.0429  0.6578 -0.7882
 5521TIP3   OH233134   4.980   2.715   9.191  0.1600 -0.2133 -0.3145
 5521TIP3    H133135   5.067   2.727   9.154 -0.2242 -0.0309 -1.1720
 5521TIP3    H233136   4.923   2.698   9.116 -0.6776  0.4279  0.1448
 5522TIP3   OH233137   0.491   2.136   8.123 -0.7473  0.7496 -0.1141
 5522TIP3    H133138   0.430   2.072   8.088 -2.4541  0.4153  3.1069
 5522TIP3    H233139   0.460   2.220   8.088  0.2245  0.1467 -2.6507
 5523TIP3   OH233140   1.292   4.519   8.615  0.4920 -0.2484 -0.5550
 5523TIP3    H133141   1.208   4.504   8.658  0.7728  0.0537  0.1127
 5523TIP3    H233142   1.314   4.436   8.573  0.1124 -0.4822 -0.2906
 5524TIP3   OH233143   3.118   5.413   8.558  0.3521 -0.1950  0.0466
 5524TIP3    H133144   3.211   5.394   8.561  0.2573 -1.2001 -1.8272
 5524TIP3    H233145   3.105   5.459   8.474 -0.6639  1.0542  0.8368
 5525TIP3   OH233146   1.976   3.974   6.692  0.5872 -0.2663 -0.2076
 5525TIP3    H133147   2.040   3.916   6.734  0.4566  0.3058  0.8326
 5525TIP3    H233148   1.908   3.916   6.658  1.1934 -0.8137 -0.4927
 5526TIP3   OH233149   1.070   3.963   9.310  0.1448  0.4306  0.2005
 5526TIP3    H133150   1.099   4.001   9.228  1.5501  0.6614  0.7747
 5526TIP3    H233151   1.062   3.869   9.291 -2.7107  0.8228 -1.0379
 5527TIP3   OH233152   6.140   5.247   0.534 -0.4682 -0.1069  0.0270
 5527TIP3    H133153   6.130   5.213   0.445 -0.7721  0.2682 -0.0840
 5527TIP3    H233154   6.235   5.246   0.549 -0.3137  0.9362 -0.7485
 5528TIP3   OH233155   2.758   5.675   7.310  0.4522 -0.3663 -0.3382
 5528TIP3    H133156   2.708   5.754   7.330 -0.4999 -0.9097 -0.5014
 5528TIP3    H233157   2.757   5.670   7.214  1.6726  0.1367 -0.3963
 5529TIP3   OH233158   2.288   5.234   2.146  0.5643  0.8565  1.1920
 5529TIP3    H133159   2.285   5.326   2.122  3.5256  0.3640 -1.7349
 5529TIP3    H233160   2.364   5.226   2.204  1.9237 -0.0126 -0.6128
 5530TIP3   OH233161   1.477   4.219   1.545  0.0339  0.5188  0.0820
 5530TIP3    H133162   1.456   4.252   1.458  0.4632  1.3898  0.3001
 5530TIP3    H233163   1.421   4.142   1.555 -2.5747  2.3097  0.3412
 5531TIP3   OH233164   6.156   5.757   6.451  0.4882  0.1492  0.0594
 5531TIP3    H133165   6.168   5.821   6.521  1.1275 -0.3390  0.4070
 5531TIP3    H233166   6.241   5.753   6.407  0.2377  0.0782 -0.4285
 5532TIP3   OH233167   2.334   3.816   0.861  0.0372  0.8804 -0.1066
 5532TIP3    H133168   2.329   3.733   0.814 -1.8056 -0.0183  1.5297
 5532TIP3    H233169   2.330   3.792   0.953 -1.1926  2.7919  0.4066
 5533TIP3   OH233170   3.385   5.094   8.806  0.5284 -0.4040  0.0178
 5533TIP3    H133171   3.305   5.082   8.754 -0.0332 -0.2371  0.8218
 5533TIP3    H233172   3.363   5.057   8.892  0.6462  1.3721  0.8495
 5534TIP3   OH233173   1.237   6.115   6.718 -0.2157 -0.3443  0.5224
 5534TIP3    H133174   1.154   6.117   6.671  0.2317  0.9502 -0.2508
 5534TIP3    H233175   1.244   6.201   6.759  1.3297  0.0477 -0.4883
 5535TIP3   OH233176   3.480   4.153   7.213  0.1464 -0.1290 -0.1980
 5535TIP3    H133177   3.488   4.237   7.167  0.0502 -0.2971 -0.5225
 5535TIP3    H233178   3.570   4.128   7.234  0.0863  1.1523  1.9047
 5536TIP3   OH233179   2.920   4.184   8.511 -0.4311 -0.1873 -0.3753
 5536TIP3    H133180   2.869   4.259   8.481  1.8629  0.8214 -2.1244
 5536TIP3    H233181   3.011   4.214   8.507  0.4555 -2.4686  0.7533
 5537TIP3   OH233182   0.962   4.276   9.283  0.7840  0.1635 -0.5406
 5537TIP3    H133183   0.873   4.275   9.318  1.0734 -0.8895  0.1913
 5537TIP3    H233184   1.019   4.275   9.360  1.4225 -0.7011 -1.0039
 5538TIP3   OH233185   1.887   3.913   7.916  0.7263  0.0490 -0.9850
 5538TIP3    H133186   1.907   3.979   7.850  1.8651 -0.5488 -1.2639
 5538TIP3    H233187   1.966   3.859   7.921  0.3352 -0.4506  0.2386
 5539TIP3   OH233188   0.930   0.479   0.030  0.2402  0.0228  0.0326
 5539TIP3    H133189   0.863   0.534  -0.011 -0.3554 -0.4133  0.3910
 5539TIP3    H233190   0.997   0.540   0.060 -0.9405  0.6852  1.4397
 5540TIP3   OH233191   3.249   2.653   9.300 -0.6052  0.3766 -0.1775
 5540TIP3    H133192   3.186   2.721   9.277 -0.2729  0.3171 -1.3397
 5540TIP3    H233193   3.298   2.690   9.374 -0.1654  1.5945 -1.0385
 5541TIP3   OH233194   4.456   5.791   9.376 -0.3761  0.4411 -0.1194
 5541TIP3    H133195   4.419   5.817   9.460 -1.5286 -1.0856 -0.1198
 5541TIP3    H233196   4.470   5.697   9.383  2.9017  0.7814 -0.4124
 5542TIP3   OH233197   5.904   5.835   1.175  0.4537 -0.2926 -0.0715
 5542TIP3    H133198   5.885   5.919   1.217 -1.4088 -0.7422  0.0589
 5542TIP3    H233199   5.991   5.812   1.207  0.2618  0.7376  1.2958
 5543TIP3   OH233200   0.847   1.871   0.061 -0.0112  0.2560 -1.0070
 5543TIP3    H133201   0.774   1.878  -0.002 -0.2044 -0.5416 -0.8835
 5543TIP3    H233202   0.915   1.928   0.025 -1.5424  3.0172  0.1363
 5544TIP3   OH233203   2.359   0.947   1.460  0.6964 -0.8222  0.0320
 5544TIP3    H133204   2.288   0.957   1.396  1.5268  1.0081 -0.6841
 5544TIP3    H233205   2.350   0.857   1.492 -1.5857 -0.8177 -0.4349
 5545TIP3   OH233206   2.812   5.603   8.007 -0.1305  0.1109 -0.4614
 5545TIP3    H133207   2.866   5.583   8.084 -2.0412 -1.0792  0.6617
 5545TIP3    H233208   2.828   5.530   7.947 -0.4916 -0.2481 -0.1257
 5546TIP3   OH233209   4.248   3.084   2.771 -0.1750  0.2904 -0.1260
 5546TIP3    H133210   4.285   3.094   2.858 -0.0883 -0.4575 -0.0717
 5546TIP3    H233211   4.321   3.053   2.717 -0.7685 -1.5132  0.0562
 5547TIP3   OH233212   5.916   5.620   1.798 -0.3164 -0.2382  0.4087
 5547TIP3    H133213   5.877   5.645   1.715 -1.0211 -2.8744 -0.1348
 5547TIP3    H233214   5.846   5.634   1.862 -0.1755  0.6152  0.3893
 5548TIP3   OH233215   5.909   5.937   6.433 -0.0342  0.4101 -0.3251
 5548TIP3    H133216   5.924   6.022   6.392  0.9359 -0.0839 -1.0438
 5548TIP3    H233217   5.996   5.910   6.464 -0.1628 -0.6813 -0.8503
 5549TIP3   OH233218   4.377   5.784   3.209  0.2896  0.4590 -0.1102
 5549TIP3    H133219   4.472   5.782   3.223 -0.0133  0.3973  2.4170
 5549TIP3    H233220   4.364   5.731   3.130  2.2327 -0.7783  0.3217
 5550TIP3   OH233221   5.931   0.270   8.126 -0.2266  0.1207 -0.3362
 5550TIP3    H133222   5.966   0.333   8.189  0.1537  0.0670 -0.4944
 5550TIP3    H233223   5.974   0.293   8.043  2.1185 -2.1344  0.1387
 5551TIP3   OH233224   1.227   4.589   0.890  0.0180 -0.1709 -0.2501
 5551TIP3    H133225   1.248   4.520   0.954  0.5384  0.5657  0.3882
 5551TIP3    H233226   1.164   4.645   0.935 -1.1867 -0.7688 -1.1305
 5552TIP3   OH233227   0.370   1.608   1.282  0.2846  0.8058  0.5200
 5552TIP3    H133228   0.325   1.613   1.366  1.9308 -0.0101  1.5013
 5552TIP3    H233229   0.349   1.691   1.238 -1.6636  0.6906  1.1342
 5553TIP3   OH233230   5.328   1.659   8.787  0.0279 -0.0058  0.2460
 5553TIP3    H133231   5.402   1.600   8.804  0.1237  0.5252  1.7732
 5553TIP3    H233232   5.254   1.600   8.772  0.7650 -0.5495 -1.5000
 5554TIP3   OH233233   0.719   1.554   6.561 -0.4400 -0.1443  0.2128
 5554TIP3    H133234   0.751   1.586   6.477  0.2259  0.9618  0.8587
 5554TIP3    H233235   0.739   1.460   6.561 -0.0889 -0.0766 -0.6892
 5555TIP3   OH233236   4.025   0.171   8.469 -0.7499 -0.7599  0.2344
 5555TIP3    H133237   4.077   0.107   8.518  5.3183 -0.0641 -4.0761
 5555TIP3    H233238   4.066   0.255   8.489 -1.0403  0.0849 -2.3046
 5556TIP3   OH233239   4.134   6.074   0.431  0.3513  0.1577  0.4015
 5556TIP3    H133240   4.193   6.000   0.441  0.2578 -0.2550 -1.6436
 5556TIP3    H233241   4.047   6.036   0.427  0.2058  0.4761  0.4644
 5557TIP3   OH233242   1.979   0.866   0.792  0.0790  0.0542 -0.5715
 5557TIP3    H133243   2.068   0.892   0.813  0.3540 -0.7681 -0.6906
 5557TIP3    H233244   1.926   0.944   0.810  0.7745  0.4478 -0.2041
 5558TIP3   OH233245   1.336   1.241   6.724  0.0513  0.1264  0.0880
 5558TIP3    H133246   1.291   1.305   6.668  0.2409  1.8367  1.7895
 5558TIP3    H233247   1.391   1.191   6.664 -0.9869  0.7717 -1.4727
 5559TIP3   OH233248   4.072   2.892   9.008 -0.7940 -0.6304  0.1460
 5559TIP3    H133249   4.051   2.834   9.081 -1.8500  0.9512  1.1858
 5559TIP3    H233250   4.063   2.837   8.930 -0.7242 -2.0938  1.1318
 5560TIP3   OH233251   4.309   4.924   1.153 -0.5610 -0.1206  0.5665
 5560TIP3    H133252   4.277   4.978   1.080  0.1731  1.0411  1.0700
 5560TIP3    H233253   4.395   4.894   1.125  0.7271  2.1686  1.7642
 5561TIP3   OH233254   5.281   2.365   0.706 -0.2565  0.2285 -0.2162
 5561TIP3    H133255   5.303   2.272   0.704 -1.9244 -0.2012 -0.4336
 5561TIP3    H233256   5.365   2.410   0.714  0.6253 -1.2645 -0.7225
 5562TIP3   OH233257   5.016   4.100   8.009 -0.1477  0.1662 -0.6503
 5562TIP3    H133258   4.984   4.024   7.960 -0.2451 -0.0811 -0.2059
 5562TIP3    H233259   4.944   4.123   8.067  0.0240  0.3679 -0.5163
 5563TIP3   OH233260   2.178   0.468   7.133 -0.2048 -0.4021  0.0091
 5563TIP3    H133261   2.216   0.540   7.082  1.0938 -2.0379 -1.4471
 5563TIP3    H233262   2.132   0.415   7.068  1.1324 -2.3153  0.5563
 5564TIP3   OH233263   0.136   2.011   7.048  0.3431  0.3223  0.2290
 5564TIP3    H133264   0.208   2.048   7.098  0.3058 -0.6020  0.9930
 5564TIP3    H233265   0.078   1.973   7.114  0.4316 -1.1772 -0.5199
 5565TIP3   OH233266   1.824   1.480   7.441 -0.5289 -0.0429  0.7310
 5565TIP3    H133267   1.901   1.510   7.489  0.4855 -1.1327 -0.1577
 5565TIP3    H233268   1.790   1.558   7.399  0.7135  0.3003  0.3132
 5566TIP3   OH233269   2.066   2.405   8.561 -0.0277  0.1929 -0.0305
 5566TIP3    H133270   2.005   2.468   8.522 -1.6822 -0.9931  0.5080
 5566TIP3    H233271   2.119   2.374   8.488  0.7273  2.0570 -0.3271
 5567TIP3   OH233272   0.703   0.758   8.191  0.3676  0.1509 -0.6782
 5567TIP3    H133273   0.733   0.831   8.137 -0.0862  1.8612  1.2518
 5567TIP3    H233274   0.618   0.787   8.226 -0.4167 -1.8295 -0.8130
 5568TIP3   OH233275   2.223   3.949   1.620  0.8654 -0.9389 -0.1795
 5568TIP3    H133276   2.141   3.918   1.658  0.1151  0.5354 -0.4969
 5568TIP3    H233277   2.253   3.877   1.564  0.8391 -2.2666  1.4309
 5569TIP3   OH233278   2.210   1.144   9.192  0.0558  0.5886  0.6948
 5569TIP3    H133279   2.116   1.152   9.206  0.2642  1.2355  1.8174
 5569TIP3    H233280   2.222   1.159   9.098 -1.0507 -0.4455  0.3751
 5570TIP3   OH233281   1.488   1.756   7.803  0.1975  0.1587  0.0505
 5570TIP3    H133282   1.545   1.679   7.811 -0.8525 -0.6522 -0.0242
 5570TIP3    H233283   1.407   1.721   7.766 -0.4500  1.2427  0.4158
 5571TIP3   OH233284   5.734   4.358   2.711  0.5293  0.0259  0.2736
 5571TIP3    H133285   5.707   4.391   2.625  1.2130 -0.2140 -0.0423
 5571TIP3    H233286   5.697   4.420   2.774 -0.2529  0.0265 -0.1683
 5572TIP3   OH233287   3.672   5.549   7.620 -0.1030 -0.4910 -0.4410
 5572TIP3    H133288   3.636   5.463   7.599  0.4140 -0.4995 -1.3508
 5572TIP3    H233289   3.714   5.537   7.705  0.7810 -1.4040 -0.9795
 5573TIP3   OH233290   4.446   0.266   7.117 -0.3224 -0.0961 -0.2359
 5573TIP3    H133291   4.414   0.176   7.119 -1.6713  0.3551  1.3814
 5573TIP3    H233292   4.435   0.297   7.207 -0.5373  1.8852 -0.8905
 5574TIP3   OH233293   2.986   4.344   0.974 -0.2340 -0.5641  0.6732
 5574TIP3    H133294   3.069   4.375   1.011 -0.5340  0.7020  0.3373
 5574TIP3    H233295   2.920   4.403   1.010 -0.5597  0.6298 -1.6646
 5575TIP3   OH233296   3.589   6.111   0.559  0.3126 -0.4826 -0.3113
 5575TIP3    H133297   3.508   6.141   0.599  0.6957  1.0321 -0.6079
 5575TIP3    H233298   3.564   6.087   0.469  0.3796  1.2295 -0.8286
 5576TIP3   OH233299   0.876   0.083   6.840 -0.3054 -0.1168 -0.0394
 5576TIP3    H133300   0.824   0.161   6.825 -0.6117 -0.3700 -0.3101
 5576TIP3    H233301   0.814   0.010   6.830 -0.2903 -0.3498  1.3173
 5577TIP3   OH233302   1.736   5.214   2.670 -0.4157 -0.6595  0.3564
 5577TIP3    H133303   1.676   5.271   2.717 -1.6133 -0.1999 -1.6172
 5577TIP3    H233304   1.692   5.129   2.669 -0.6618 -0.5282 -0.3855
 5578TIP3   OH233305   4.510   4.374   8.790  0.2318  0.2825 -0.1695
 5578TIP3    H133306   4.446   4.318   8.745 -0.1681 -0.5724  1.3822
 5578TIP3    H233307   4.595   4.347   8.756  0.0156 -1.0740  0.3134
 5579TIP3   OH233308   5.569   3.693   0.675  0.0682 -0.3632 -0.4831
 5579TIP3    H133309   5.538   3.665   0.761 -1.2076  1.6508 -0.2318
 5579TIP3    H233310   5.602   3.781   0.689 -0.3719  0.0896 -2.0999
 5580TIP3   OH233311   5.523   3.616   3.001 -0.4756  0.0374  0.0655
 5580TIP3    H133312   5.430   3.599   3.013 -0.7339  0.2609 -1.4187
 5580TIP3    H233313   5.566   3.556   3.063 -1.5887  0.1419  0.9770
 5581TIP3   OH233314   0.630   5.375   8.865 -0.3799 -0.3988 -0.0415
 5581TIP3    H133315   0.540   5.343   8.861 -0.1080 -1.1167 -0.4126
 5581TIP3    H233316   0.664   5.341   8.948 -0.5411  0.1285  0.2461
 5582TIP3   OH233317   2.907   2.146   7.190  0.6076  0.2815 -0.0117
 5582TIP3    H133318   2.979   2.120   7.247  1.1855 -0.0706 -0.8764
 5582TIP3    H233319   2.881   2.064   7.147 -2.3221 -0.2476  2.4502
 5583TIP3   OH233320   2.506   0.703   0.272  0.1801 -0.0474  0.3159
 5583TIP3    H133321   2.535   0.706   0.363 -0.1530  0.1114  0.4175
 5583TIP3    H233322   2.532   0.616   0.241  2.3211  0.6931 -0.1238
 5584TIP3   OH233323   0.588   3.794   6.752  0.0979  0.1467  0.1248
 5584TIP3    H133324   0.576   3.885   6.779  2.3973  1.7152 -3.3922
 5584TIP3    H233325   0.515   3.777   6.692  1.6278  1.1995 -2.2245
 5585TIP3   OH233326   4.708   1.869   8.707 -0.5721 -0.3137  0.1065
 5585TIP3    H133327   4.741   1.849   8.620 -0.8103  0.0492 -0.0705
 5585TIP3    H233328   4.661   1.952   8.697 -1.7885 -0.9551  0.2830
 5586TIP3   OH233329   3.298   3.074   7.665 -0.1534 -0.2648 -0.1339
 5586TIP3    H133330   3.247   3.011   7.715 -0.8612 -1.0920 -1.8173
 5586TIP3    H233331   3.232   3.136   7.631  0.5135  1.4213  1.4580
 5587TIP3   OH233332   1.376   1.509   2.374 -0.1659 -0.4692  0.2142
 5587TIP3    H133333   1.435   1.436   2.392 -3.0370 -2.5533  1.9205
 5587TIP3    H233334   1.320   1.516   2.451 -0.8627  2.8089 -0.4028
 5588TIP3   OH233335   5.927   4.650   7.786  0.0965  0.1277 -0.2543
 5588TIP3    H133336   5.855   4.596   7.820  0.6162  0.6583  1.7872
 5588TIP3    H233337   5.902   4.740   7.809 -0.1022  0.6739 -2.4155
 5589TIP3   OH233338   1.360   0.078   5.965  0.0952  0.2087  0.4140
 5589TIP3    H133339   1.288   0.133   5.934  0.2596  0.2306  0.0668
 5589TIP3    H233340   1.419   0.139   6.010  0.3137  0.3309 -0.0346
 5590TIP3   OH233341   5.625   4.101   9.120  0.3851 -0.3506 -0.5021
 5590TIP3    H133342   5.699   4.071   9.173 -0.9013 -0.0866  1.5649
 5590TIP3    H233343   5.622   4.195   9.133 -1.4727 -0.5721  1.1293
 5591TIP3   OH233344   1.013   3.861   7.583  0.0648 -0.1643 -0.3811
 5591TIP3    H133345   1.087   3.847   7.642 -0.0012 -0.5871 -0.3942
 5591TIP3    H233346   0.947   3.798   7.612 -0.1983  0.0456 -0.5226
 5592TIP3   OH233347   4.646   2.847   1.414 -0.8814 -0.7401  0.4088
 5592TIP3    H133348   4.716   2.820   1.354  0.5771 -1.1722  2.2099
 5592TIP3    H233349   4.661   2.941   1.426 -0.2465 -0.9320  1.2035
 5593TIP3   OH233350   4.326   3.625   7.803 -0.6460 -0.6432  0.1843
 5593TIP3    H133351   4.277   3.650   7.881  2.9808  2.1044  1.8761
 5593TIP3    H233352   4.317   3.700   7.744  1.0887 -0.2679  0.3600
 5594TIP3   OH233353   0.596   2.776   7.406  0.0619  0.0310  0.1408
 5594TIP3    H133354   0.683   2.778   7.446 -0.7167 -0.9893  1.9960
 5594TIP3    H233355   0.538   2.814   7.472 -1.1062 -0.6179 -0.4737
 5595TIP3   OH233356   3.048   5.243   2.157  1.0304  0.8443 -0.0523
 5595TIP3    H133357   3.062   5.334   2.130  1.1611  1.0954  0.8290
 5595TIP3    H233358   2.956   5.240   2.184  1.0045  0.7011 -0.1603
 5596TIP3   OH233359   0.217   1.060   9.339 -0.1895  0.1506  0.1727
 5596TIP3    H133360   0.305   1.031   9.313  0.5983  2.6318 -0.1803
 5596TIP3    H233361   0.233   1.130   9.402 -1.9596  0.1745  0.6286
 5597TIP3   OH233362   4.074   5.001   7.752 -0.1161 -0.7120  0.0450
 5597TIP3    H133363   4.074   4.997   7.656 -1.0345  3.0506 -0.2793
 5597TIP3    H233364   4.167   5.005   7.775  0.1290 -2.0386 -0.6129
 5598TIP3   OH233365   1.065   6.091   9.298 -0.0316 -0.1483  0.3037
 5598TIP3    H133366   1.081   6.184   9.309  0.5674 -0.1412 -0.5047
 5598TIP3    H233367   1.138   6.061   9.243 -1.7993 -0.5171 -1.9701
 5599TIP3   OH233368   2.153   4.201   7.294  0.0994 -0.2578  0.1993
 5599TIP3    H133369   2.224   4.265   7.309  0.0661  0.2444 -1.5193
 5599TIP3    H233370   2.154   4.188   7.199 -2.1472 -0.2059  0.1301
 5600TIP3   OH233371   2.081   4.388   1.991  0.1658 -0.3173  0.1464
 5600TIP3    H133372   2.146   4.324   1.963  1.0302  0.0142  1.3254
 5600TIP3    H233373   2.039   4.417   1.910 -0.7305 -2.8427 -0.3729
 5601TIP3   OH233374   6.324   1.453   1.245  0.1613  0.1387  0.2325
 5601TIP3    H133375   6.316   1.527   1.185 -0.0662  0.7866  1.0311
 5601TIP3    H233376   6.410   1.416   1.226 -0.8871 -1.2492 -2.1965
 5602TIP3   OH233377   4.934   3.899   0.147 -0.1962  0.1410 -0.0284
 5602TIP3    H133378   4.989   3.878   0.071 -0.0398 -1.7904  0.5686
 5602TIP3    H233379   4.988   3.958   0.199  1.1920 -1.3424  0.3101
 5603TIP3   OH233380   2.815   2.650   9.173  0.4581 -0.4620  0.2886
 5603TIP3    H133381   2.724   2.680   9.170  0.0986 -1.5986 -0.7860
 5603TIP3    H233382   2.819   2.596   9.252  0.2844 -0.1454  0.5160
 5604TIP3   OH233383   3.631   2.387   1.626  0.0169  0.5382 -0.0147
 5604TIP3    H133384   3.646   2.305   1.578  1.9267  0.1329  1.1691
 5604TIP3    H233385   3.658   2.456   1.566 -0.2476  0.2237 -0.5041
 5605TIP3   OH233386   4.503   5.986   8.360 -0.8235 -0.1131  0.2185
 5605TIP3    H133387   4.429   5.929   8.338 -2.4493  2.7105 -2.3379
 5605TIP3    H233388   4.558   5.985   8.281  0.3874  0.0703  1.0303
 5606TIP3   OH233389   4.906   2.521   7.138 -0.0157 -0.1939  0.0342
 5606TIP3    H133390   4.846   2.458   7.179  0.8160 -0.5157  0.7850
 5606TIP3    H233391   4.981   2.468   7.111  0.9297  0.5259  1.1384
 5607TIP3   OH233392   4.915   4.250   1.948  0.1970 -0.8171  0.5826
 5607TIP3    H133393   4.908   4.335   1.904 -0.0736 -1.2675 -0.2684
 5607TIP3    H233394   4.825   4.218   1.952  0.3855 -1.4054  0.1987
 5608TIP3   OH233395   0.616   2.513   9.313  0.2167  0.0696 -0.4565
 5608TIP3    H133396   0.587   2.586   9.259  0.1184  0.3727  0.0005
 5608TIP3    H233397   0.535   2.468   9.339  0.3508 -1.8787 -2.9798
 5609TIP3   OH233398   4.360   2.853   7.770  0.8154  0.3911 -0.0078
 5609TIP3    H133399   4.443   2.901   7.767  0.9806  0.4865  2.8082
 5609TIP3    H233400   4.384   2.762   7.751  1.2015  0.7346 -1.2161
 5610TIP3   OH233401   2.149   0.531   7.873 -0.5380 -0.0028  0.3709
 5610TIP3    H133402   2.132   0.625   7.859  0.9808  0.5959  2.2028
 5610TIP3    H233403   2.115   0.489   7.794  2.4259  2.4971 -2.5302
 5611TIP3   OH233404   2.572   5.469   8.038  0.4158  0.3164 -0.6237
 5611TIP3    H133405   2.648   5.527   8.040  1.3292 -0.8746  0.0501
 5611TIP3    H233406   2.579   5.416   8.117  0.2890 -1.5739 -1.8006
 5612TIP3   OH233407   3.959   2.826   6.618  0.0133 -0.4922  0.2601
 5612TIP3    H133408   3.940   2.866   6.703 -2.4297 -0.3392 -0.2905
 5612TIP3    H233409   3.887   2.764   6.605  1.6718 -2.3432 -0.6202
 5613TIP3   OH233410   3.374   2.157   1.773 -0.1095  0.7921  0.4034
 5613TIP3    H133411   3.397   2.182   1.862 -0.3779  1.2490  0.3497
 5613TIP3    H233412   3.457   2.132   1.732 -0.3025 -2.6726  1.7353
 5614TIP3   OH233413   0.730   3.440   0.317  0.5441  0.0313  0.2085
 5614TIP3    H133414   0.677   3.363   0.339 -0.5465 -0.2316 -2.8845
 5614TIP3    H233415   0.788   3.411   0.247  1.6936  1.5123  0.4758
 5615TIP3   OH233416   0.352   4.430   7.220  0.4738 -0.6554  0.2964
 5615TIP3    H133417   0.260   4.404   7.230  0.4844 -0.2273  1.7799
 5615TIP3    H233418   0.371   4.417   7.127 -0.8826 -1.4166  0.1015
 5616TIP3   OH233419   2.354   0.045   0.559 -0.0840  0.4066 -0.7188
 5616TIP3    H133420   2.358  -0.014   0.635 -3.3971  2.3473  1.2082
 5616TIP3    H233421   2.313  -0.007   0.490 -1.6939 -0.0115  0.4992
 5617TIP3   OH233422   3.979   0.936   0.453 -0.2373  0.0513 -0.2050
 5617TIP3    H133423   4.040   0.936   0.379  0.7076 -1.7553  0.5237
 5617TIP3    H233424   3.908   0.878   0.426 -1.2575  1.4759 -0.7058
 5618TIP3   OH233425   1.303   5.987   8.844 -0.4331  0.7286  0.2947
 5618TIP3    H133426   1.395   5.963   8.834 -0.8376 -0.1787 -1.7705
 5618TIP3    H233427   1.305   6.079   8.871  1.1101  1.3071 -1.5025
 5619TIP3   OH233428   2.986   4.046   0.188  0.2830  0.5623  0.5233
 5619TIP3    H133429   3.022   4.115   0.132  2.3268 -1.3548 -0.7214
 5619TIP3    H233430   3.052   3.977   0.185 -2.4903 -2.3091  0.0004
 5620TIP3   OH233431   4.924   0.114   1.069 -0.1173 -0.3309  0.3339
 5620TIP3    H133432   4.984   0.181   1.102 -0.6786 -0.1289  0.9746
 5620TIP3    H233433   4.851   0.163   1.031  0.7284 -0.5445 -1.7236
 5621TIP3   OH233434   0.853   4.768   7.196  0.2654  0.3122 -0.1134
 5621TIP3    H133435   0.794   4.706   7.239 -0.0319  0.6614 -0.0180
 5621TIP3    H233436   0.805   4.851   7.196 -0.2710  0.0560 -2.2002
 5622TIP3   OH233437   2.349   4.029   8.669 -0.2078 -0.1129 -0.0136
 5622TIP3    H133438   2.376   4.003   8.757  2.8322  0.6926 -0.5818
 5622TIP3    H233439   2.336   3.945   8.623  0.6580 -0.5779  0.5554
 5623TIP3   OH233440   3.259   5.360   1.167  0.0142 -0.1782  0.5152
 5623TIP3    H133441   3.289   5.294   1.229  0.8610  0.6850  1.0448
 5623TIP3    H233442   3.273   5.444   1.212 -0.3480  0.4074 -0.4310
 5624TIP3   OH233443   0.561   3.401   8.751 -0.4534 -0.1688 -0.4252
 5624TIP3    H133444   0.517   3.329   8.795  0.1233 -0.1461  0.2040
 5624TIP3    H233445   0.654   3.382   8.761 -0.1979  1.7554  1.6522
 5625TIP3   OH233446   4.682   0.928   7.241  0.4763  0.6165  0.3355
 5625TIP3    H133447   4.750   0.995   7.237 -0.1010  1.1872 -0.2474
 5625TIP3    H233448   4.714   0.857   7.186  0.5389  0.9531 -0.0732
 5626TIP3   OH233449   4.787   3.849   2.199  0.7714 -0.1448  0.1020
 5626TIP3    H133450   4.731   3.771   2.199  1.0352 -0.3835 -2.1658
 5626TIP3    H233451   4.726   3.922   2.188  0.7129 -0.2246 -0.1153
 5627TIP3   OH233452   5.915   1.508   1.553 -0.3396  0.1031  0.0600
 5627TIP3    H133453   5.990   1.465   1.512 -1.3769 -0.6059 -1.1497
 5627TIP3    H233454   5.897   1.455   1.631 -1.4678 -1.6062 -1.2949
 5628TIP3   OH233455   2.090   5.499   0.522 -0.2804  0.6340  0.0523
 5628TIP3    H133456   2.063   5.576   0.573 -1.0234  0.3793  0.0570
 5628TIP3    H233457   2.103   5.430   0.588 -0.3537  0.5493 -0.0213
 5629TIP3   OH233458   2.654   0.943   2.114 -0.6100  0.1554  0.1981
 5629TIP3    H133459   2.610   1.005   2.173 -0.6392  0.1069  0.2271
 5629TIP3    H233460   2.604   0.947   2.033 -0.5379  0.2621  0.1582
 5630TIP3   OH233461   3.872   2.481   8.926 -0.7039  0.2505  0.3277
 5630TIP3    H133462   3.811   2.535   8.876 -0.0742 -0.6325 -1.4969
 5630TIP3    H233463   3.835   2.392   8.920 -0.1283 -0.0184  0.6792
 5631TIP3   OH233464   1.374   4.917   8.468  0.6697 -0.1295  0.2139
 5631TIP3    H133465   1.452   4.863   8.470 -0.1284 -1.4971 -2.1305
 5631TIP3    H233466   1.333   4.899   8.384 -0.4062  3.1152 -0.1318
 5632TIP3   OH233467   2.151   0.024   1.590  0.3669  0.2207 -0.0436
 5632TIP3    H133468   2.059   0.051   1.590  0.1703 -0.4454  0.7864
 5632TIP3    H233469   2.182   0.049   1.503 -0.4534  0.9333 -0.1478
 5633TIP3   OH233470   1.424   1.986   1.808  0.5038  0.0314 -0.3197
 5633TIP3    H133471   1.489   1.917   1.801  0.4035 -0.2450  1.0290
 5633TIP3    H233472   1.456   2.041   1.880 -0.6444 -0.0225  0.2562
 5634TIP3   OH233473   2.158   6.297   8.600  0.2476  0.1566 -0.2988
 5634TIP3    H133474   2.085   6.235   8.592 -0.5500  1.1981 -1.2870
 5634TIP3    H233475   2.179   6.322   8.511  1.3171  0.4759  0.0252
 5635TIP3   OH233476   0.520   2.315   2.887 -0.4063 -0.0683  0.4490
 5635TIP3    H133477   0.517   2.220   2.900  2.7601 -0.5994 -1.6075
 5635TIP3    H233478   0.435   2.336   2.849 -1.0874 -2.1184  0.7013
 5636TIP3   OH233479   0.822   5.899   7.084 -0.9514 -0.6183 -0.5496
 5636TIP3    H133480   0.907   5.855   7.083 -1.6448 -2.1169  1.4108
 5636TIP3    H233481   0.778   5.867   7.005  0.2856  0.2516 -1.6420
 5637TIP3   OH233482   4.540   5.804   0.690 -0.6239  0.0158  0.1306
 5637TIP3    H133483   4.583   5.781   0.773 -0.4698 -0.6479 -0.1245
 5637TIP3    H233484   4.499   5.722   0.662  1.3357 -0.4115 -1.6567
 5638TIP3   OH233485   5.798   3.405   1.570  0.0594  0.0466 -0.3709
 5638TIP3    H133486   5.836   3.415   1.658 -0.7358 -0.0520 -0.0015
 5638TIP3    H233487   5.814   3.314   1.547 -1.3698 -0.4474  0.4826
 5639TIP3   OH233488   5.913   4.064   2.252 -0.3696 -0.1259 -0.2697
 5639TIP3    H133489   5.937   4.109   2.334 -1.5543 -0.1874  0.1311
 5639TIP3    H233490   5.824   4.033   2.267 -0.1764 -1.1786 -1.1616
 5640TIP3   OH233491   0.626   3.386   9.225 -0.2679  0.8772 -0.2155
 5640TIP3    H133492   0.642   3.349   9.312 -1.4410 -0.4070 -0.5263
 5640TIP3    H233493   0.534   3.370   9.208  0.3440 -0.6882 -2.5253
 5641TIP3   OH233494   4.925   4.799   8.634  0.1286  0.5216  0.1492
 5641TIP3    H133495   4.963   4.723   8.590  1.0930  0.5907  0.8395
 5641TIP3    H233496   4.978   4.873   8.605 -0.0452  0.7511  0.4086
 5642TIP3   OH233497   2.614   5.581   8.989 -0.0046  0.4787 -0.3612
 5642TIP3    H133498   2.561   5.639   9.043  0.3463  1.5366 -1.1029
 5642TIP3    H233499   2.673   5.640   8.942  1.1379 -0.5753 -0.3204
 5643TIP3   OH233500   5.081   4.999   2.279  0.2499  0.1414  0.8505
 5643TIP3    H133501   5.093   4.929   2.343 -0.4786  0.5917  1.4907
 5643TIP3    H233502   5.021   5.060   2.321 -0.8752  0.0575 -0.5478
 5644TIP3   OH233503   5.464   1.663   1.862  0.5378  0.1449 -0.2714
 5644TIP3    H133504   5.535   1.608   1.829  1.0376  0.2157  0.6376
 5644TIP3    H233505   5.480   1.749   1.823  1.1027  0.2212  0.1129
 5645TIP3   OH233506   5.513   5.312   8.660 -0.3308 -0.1589 -0.4574
 5645TIP3    H133507   5.551   5.392   8.624 -0.9138  0.7543  0.8382
 5645TIP3    H233508   5.423   5.336   8.682 -0.3678 -1.0189  0.4152
 5646TIP3   OH233509   1.415   4.554   1.829  0.4724  0.5771 -0.1084
 5646TIP3    H133510   1.365   4.494   1.773  0.7505  2.0090 -1.9786
 5646TIP3    H233511   1.389   4.641   1.800  2.2672  1.3690  0.5331
 5647TIP3   OH233512   1.144   6.246   1.091  0.0014  0.1902 -0.1894
 5647TIP3    H133513   1.076   6.194   1.049 -0.4295 -0.9171  1.7351
 5647TIP3    H233514   1.095   6.311   1.143  0.4907  1.1067 -0.8563
 5648TIP3   OH233515   1.418   1.112   1.659  0.3791  0.1682 -0.3203
 5648TIP3    H133516   1.379   1.132   1.574  1.2307 -0.6194 -0.9233
 5648TIP3    H233517   1.346   1.121   1.722 -0.8425 -1.4144 -1.4028
 5649TIP3   OH233518   1.111   4.166   8.812 -0.1899  0.5445  0.2117
 5649TIP3    H133519   1.024   4.205   8.821  0.0942  1.3797 -0.5425
 5649TIP3    H233520   1.172   4.235   8.840  0.1897 -0.8954  3.4062
 5650TIP3   OH233521   1.355   2.389   7.960  0.2133 -0.0476  0.2117
 5650TIP3    H133522   1.310   2.337   8.027  0.1333 -1.1114 -0.6354
 5650TIP3    H233523   1.291   2.456   7.936 -1.1332 -1.7397 -1.2166
 5651TIP3   OH233524   2.044   3.925   0.902  0.2580 -0.0131 -0.2322
 5651TIP3    H133525   2.008   4.009   0.874  2.6565  1.3983  0.6199
 5651TIP3    H233526   2.042   3.871   0.823  0.3366  1.4570 -1.2841
 5652TIP3   OH233527   2.638   4.570   0.074 -0.6435  0.4699 -0.4624
 5652TIP3    H133528   2.658   4.597   0.164  0.3911 -1.4730 -0.0566
 5652TIP3    H233529   2.556   4.521   0.081 -0.2064 -0.2741 -0.4394
 5653TIP3   OH233530   4.777   3.319   1.853 -0.9016 -0.4524  0.1856
 5653TIP3    H133531   4.744   3.235   1.884 -1.2751 -1.1617 -1.9745
 5653TIP3    H233532   4.871   3.317   1.872 -1.2487 -0.3740  2.1453
 5654TIP3   OH233533   4.433   3.099   0.319 -0.3221  0.2857 -0.1241
 5654TIP3    H133534   4.486   3.053   0.253 -0.3692  0.1446 -0.0629
 5654TIP3    H233535   4.361   3.039   0.339 -1.4053  1.0939 -1.3709
 5655TIP3   OH233536   6.372   2.073   1.459 -0.0422 -0.3749 -0.1580
 5655TIP3    H133537   6.399   1.988   1.494 -2.7814 -0.7703  1.2512
 5655TIP3    H233538   6.288   2.056   1.417 -0.2688  1.5113 -0.5302
 5656TIP3   OH233539   1.528   6.136   1.972  0.7075 -0.1054  0.0455
 5656TIP3    H133540   1.594   6.149   2.040  1.1081  0.8846 -0.5131
 5656TIP3    H233541   1.448   6.115   2.020  1.3605 -1.0712  0.7417
 5657TIP3   OH233542   4.004   0.631   1.325  0.5903  0.3289  0.1828
 5657TIP3    H133543   4.013   0.572   1.249  0.4888  2.0536 -1.2234
 5657TIP3    H233544   4.056   0.588   1.394  0.2343 -1.5662 -0.6486
 5658TIP3   OH233545   0.505   2.729   8.412 -0.1961 -0.4796 -0.4271
 5658TIP3    H133546   0.433   2.680   8.371  0.0400 -1.3772  0.1942
 5658TIP3    H233547   0.583   2.678   8.391 -0.0439 -0.8447  0.9241
 5659TIP3   OH233548   3.854   5.979   1.891  0.2180 -0.2450  0.2391
 5659TIP3    H133549   3.808   5.915   1.836 -0.3892  0.3522  0.0470
 5659TIP3    H233550   3.930   5.931   1.923  0.4986 -0.6722 -0.9779
 5660TIP3   OH233551   6.434   2.848   8.561 -0.0834  0.2371  0.0561
 5660TIP3    H133552   6.486   2.923   8.532  0.6981  0.1527  1.1747
 5660TIP3    H233553   6.358   2.847   8.502 -0.4840  2.3297  0.4649
 5661TIP3   OH233554   5.632   0.659   8.444 -0.2204 -0.1918 -0.0096
 5661TIP3    H133555   5.587   0.696   8.520 -1.4895 -1.7453  0.0499
 5661TIP3    H233556   5.716   0.704   8.442  0.2829 -0.8042  2.9454
 5662TIP3   OH233557   2.070   0.037   3.108  0.0086 -0.0479  0.4042
 5662TIP3    H133558   2.113   0.064   3.028 -0.2345  0.4055  0.4218
 5662TIP3    H233559   2.060  -0.058   3.100  0.7482 -0.1225  0.2805
 5663TIP3   OH233560   4.275   4.979   0.283 -0.3647  0.0060 -0.1611
 5663TIP3    H133561   4.361   5.021   0.289 -0.4497  0.1458  0.1111
 5663TIP3    H233562   4.267   4.953   0.191 -0.0758  0.0858 -0.2094
 5664TIP3   OH233563   3.392   1.641   1.220 -0.1591 -0.0552  0.5127
 5664TIP3    H133564   3.314   1.585   1.210  0.4060 -0.9231  0.8369
 5664TIP3    H233565   3.359   1.730   1.210 -1.1186 -0.4362  0.1682
 5665TIP3   OH233566   0.570   5.852   0.790 -0.4149 -0.2967  0.2340
 5665TIP3    H133567   0.559   5.760   0.816 -0.2795  0.3174  2.6598
 5665TIP3    H233568   0.549   5.852   0.696 -1.2985 -2.6358  0.3465
 5666TIP3   OH233569   0.761   2.574   8.357  0.3106  0.4688 -0.0083
 5666TIP3    H133570   0.800   2.488   8.341 -1.2130 -0.2373 -0.0921
 5666TIP3    H233571   0.818   2.614   8.423 -0.2881 -1.6324  1.9242
 5667TIP3   OH233572   2.323   2.343   9.168 -0.2340  0.1159  0.1264
 5667TIP3    H133573   2.229   2.363   9.163  0.1902  2.0283 -2.2607
 5667TIP3    H233574   2.341   2.336   9.262 -2.6689  0.1492  0.6620
 5668TIP3   OH233575   4.734   0.616   7.094 -0.0536 -0.2432 -0.6334
 5668TIP3    H133576   4.720   0.605   7.188 -0.1072  2.1180 -0.3025
 5668TIP3    H233577   4.718   0.529   7.057 -3.1383 -0.6046  1.1627
 5669TIP3   OH233578   1.248   4.697   7.782 -0.0538 -0.4126 -0.2660
 5669TIP3    H133579   1.233   4.656   7.867 -0.6293 -0.0852 -0.2046
 5669TIP3    H233580   1.202   4.639   7.720 -0.5773 -0.0598 -0.2186
 5670TIP3   OH233581   5.414   2.524   7.143  0.2076  0.3289  0.5428
 5670TIP3    H133582   5.443   2.604   7.100 -2.3716  1.1254  0.1447
 5670TIP3    H233583   5.382   2.553   7.229  1.1120 -0.6060  1.2328
 5671TIP3   OH233584   1.795   4.590   8.898 -0.0253  0.5371 -0.2571
 5671TIP3    H133585   1.786   4.495   8.893 -0.4834  0.5294  0.5824
 5671TIP3    H233586   1.876   4.604   8.947 -0.2462  0.5728  0.1021
 5672TIP3   OH233587   2.708   5.461   2.054  0.0027  0.2891 -0.0325
 5672TIP3    H133588   2.803   5.463   2.046  0.0718  0.9798  0.8025
 5672TIP3    H233589   2.691   5.396   2.123 -0.1205  0.3184 -0.0344
 5673TIP3   OH233590   5.425   3.427   0.120  0.0875 -0.2958  0.2766
 5673TIP3    H133591   5.432   3.350   0.064  1.2355  1.5137 -2.2404
 5673TIP3    H233592   5.344   3.413   0.169 -0.1978 -2.6599 -0.7157
 5674TIP3   OH233593   3.967   1.711   0.054  0.3015 -0.5718 -0.2801
 5674TIP3    H133594   4.030   1.766   0.101  1.5425  0.6070 -3.0825
 5674TIP3    H233595   4.022   1.650   0.004 -0.8981 -1.2437 -0.8219
 5675TIP3   OH233596   0.051   3.342   6.171  0.8831 -0.0997 -0.4364
 5675TIP3    H133597   0.046   3.248   6.153  0.3840 -0.4992  1.5455
 5675TIP3    H233598   0.144   3.363   6.159  1.0582 -0.9182 -0.5977
 5676TIP3   OH233599   3.053   5.313   1.692  0.0622 -0.0707  0.1610
 5676TIP3    H133600   2.996   5.267   1.754 -0.0064  2.4243  2.1142
 5676TIP3    H233601   3.142   5.291   1.720  0.2071 -2.8754 -2.0515
 5677TIP3   OH233602   1.198   6.091   7.779  0.0904  0.1388  0.1618
 5677TIP3    H133603   1.185   6.118   7.688  0.7398  1.8399  0.5303
 5677TIP3    H233604   1.265   6.151   7.812 -1.5505  0.9083  2.3415
 5678TIP3   OH233605   4.921   0.048   8.290 -0.1756  0.6479  0.3089
 5678TIP3    H133606   4.844   0.080   8.337 -2.4583 -0.1040 -2.6998
 5678TIP3    H233607   4.973   0.127   8.274 -1.4664  1.5484  0.4048
 5679TIP3   OH233608   0.494   6.202   8.795  0.4452  0.2753  0.3118
 5679TIP3    H133609   0.500   6.228   8.887 -0.1300  0.1815  0.3776
 5679TIP3    H233610   0.483   6.107   8.798 -1.4409  0.4564  0.2284
 5680TIP3   OH233611   5.142   2.596   1.879 -0.6543  0.1004  0.1692
 5680TIP3    H133612   5.048   2.585   1.864 -0.7719  0.7627  0.3871
 5680TIP3    H233613   5.147   2.636   1.966 -0.1553 -0.1773  0.2721
 5681TIP3   OH233614   4.822   1.343   1.666 -0.4211  0.4782 -0.8748
 5681TIP3    H133615   4.776   1.265   1.697  1.7325 -1.3112 -1.8767
 5681TIP3    H233616   4.838   1.394   1.746 -0.5811 -0.8448  0.0444
 5682TIP3   OH233617   2.249   2.641   0.678 -0.3154  0.7601 -0.0827
 5682TIP3    H133618   2.177   2.598   0.723 -1.1257  1.9656 -0.1840
 5682TIP3    H233619   2.320   2.642   0.743 -0.8351  0.7664  0.4979
 5683TIP3   OH233620   2.826   4.442   1.720  0.6893  0.5237  0.2014
 5683TIP3    H133621   2.746   4.397   1.693  1.7798 -1.4863  0.1125
 5683TIP3    H233622   2.855   4.489   1.642 -0.3666  1.2404  0.2299
 5684TIP3   OH233623   2.502   1.552   6.766  0.6423  0.0613 -0.0039
 5684TIP3    H133624   2.429   1.512   6.814  0.5287 -1.0104 -1.0330
 5684TIP3    H233625   2.561   1.583   6.834 -0.4458  0.3477  0.8455
 5685TIP3   OH233626   1.854   5.174   8.003  0.1204 -0.3318  0.4242
 5685TIP3    H133627   1.795   5.137   8.069  0.4743 -0.4002  0.7015
 5685TIP3    H233628   1.819   5.262   7.987 -1.3761 -1.1355 -1.0432
 5686TIP3   OH233629   3.436   2.797   7.816 -0.1354  0.1224  0.5345
 5686TIP3    H133630   3.464   2.743   7.742 -0.4846 -0.7432  1.0131
 5686TIP3    H233631   3.343   2.780   7.824 -0.4029  1.3650  0.2574
 5687TIP3   OH233632   2.323   5.343   8.710 -0.2122  0.5428 -0.2686
 5687TIP3    H133633   2.407   5.372   8.674 -0.3667 -0.7192 -1.7437
 5687TIP3    H233634   2.346   5.292   8.787  0.3450  0.5086 -0.4537
 5688TIP3   OH233635   0.847   1.637   6.335 -0.3050  0.7289  0.2781
 5688TIP3    H133636   0.778   1.681   6.284 -0.8547 -0.0557  0.3154
 5688TIP3    H233637   0.929   1.667   6.296 -0.7071  0.5707 -0.7247
 5689TIP3   OH233638   0.907   1.899   1.450 -0.7394  0.4127 -0.9079
 5689TIP3    H133639   0.833   1.914   1.391 -0.9217 -0.0002 -0.7948
 5689TIP3    H233640   0.929   1.806   1.437 -0.4330  0.4585 -0.7233
 5690TIP3   OH233641   0.374   3.946   0.865 -0.1819 -0.0780  0.0655
 5690TIP3    H133642   0.406   4.029   0.828  1.0628 -0.8666 -0.6934
 5690TIP3    H233643   0.438   3.923   0.931 -0.3997 -0.5564  0.1116
 5691TIP3   OH233644   5.112   4.797   2.456  0.1035 -0.0111 -0.4386
 5691TIP3    H133645   5.142   4.714   2.419 -0.1230  0.2117 -1.1373
 5691TIP3    H233646   5.138   4.793   2.548  1.7243 -0.0915 -0.8776
 5692TIP3   OH233647   4.956   3.691   0.707 -0.0016 -0.4343 -0.0870
 5692TIP3    H133648   5.041   3.650   0.717  0.1234 -0.1391  0.0733
 5692TIP3    H233649   4.969   3.758   0.640  0.4053  0.9903  1.3565
 5693TIP3   OH233650   1.277   0.661   3.041 -0.0384  0.0665 -0.8156
 5693TIP3    H133651   1.372   0.662   3.050  0.2369  0.0845 -3.1181
 5693TIP3    H233652   1.249   0.749   3.068  0.2882 -0.5831  1.9335
 5694TIP3   OH233653   1.868   1.699   0.252 -0.0868 -0.0474  0.0149
 5694TIP3    H133654   1.817   1.778   0.269  1.2296  0.8322  0.0592
 5694TIP3    H233655   1.891   1.706   0.159 -0.9519 -1.0040 -0.2896
 5695TIP3   OH233656   2.360   5.003   8.209 -0.4839 -0.6387 -0.3722
 5695TIP3    H133657   2.296   4.989   8.140 -1.3950 -0.2334  0.3793
 5695TIP3    H233658   2.324   4.956   8.285 -0.2246  0.1424  0.2425
 5696TIP3   OH233659   4.486   3.026   7.474 -0.4697 -0.7023  0.3813
 5696TIP3    H133660   4.479   3.121   7.476  1.2655 -0.5254 -0.0948
 5696TIP3    H233661   4.493   3.000   7.565 -1.5693 -0.4584  0.5522
 5697TIP3   OH233662   4.315   5.597   2.955 -0.3029  0.4150 -0.3108
 5697TIP3    H133663   4.376   5.590   2.881 -3.7229 -0.8017 -3.2744
 5697TIP3    H233664   4.311   5.508   2.991 -1.1103  0.2323 -0.8402
 5698TIP3   OH233665   5.052   3.093   2.910  0.1852 -0.2803  0.1231
 5698TIP3    H133666   5.040   3.187   2.893 -0.7122 -0.6712 -1.6997
 5698TIP3    H233667   5.108   3.062   2.839  0.1945 -1.1968  0.5101
 5699TIP3   OH233668   4.553   3.301   0.167 -0.0892 -0.6235  0.3455
 5699TIP3    H133669   4.607   3.348   0.229 -1.0234  1.1333 -0.1065
 5699TIP3    H233670   4.500   3.242   0.221 -0.8352  0.8163  1.2454
 5700TIP3   OH233671   0.891   2.237   0.333 -0.3586 -0.5402 -0.4804
 5700TIP3    H133672   0.837   2.305   0.373 -2.2737 -1.9905 -0.4360
 5700TIP3    H233673   0.875   2.247   0.239  0.7490  0.1563 -0.6056
 5701TIP3   OH233674   1.686   3.840   0.788 -0.2384 -0.0264  0.2357
 5701TIP3    H133675   1.636   3.766   0.754 -0.9765  0.5735  0.0247
 5701TIP3    H233676   1.772   3.833   0.745 -0.3413 -0.6859  0.1301
 5702TIP3   OH233677   1.639   0.913   2.781 -0.4265  0.2600  0.3837
 5702TIP3    H133678   1.702   0.951   2.720  0.4723 -1.9582 -0.1814
 5702TIP3    H233679   1.660   0.953   2.865  0.8323  0.5794 -0.0582
 5703TIP3   OH233680   6.244   3.401   8.200  0.1500  0.1497 -0.1340
 5703TIP3    H133681   6.249   3.306   8.197 -1.2085  0.0677 -0.4614
 5703TIP3    H233682   6.329   3.429   8.233  1.5685 -1.0093 -2.6312
 5704TIP3   OH233683   2.354   3.174   7.248 -0.4448 -0.5411 -0.2920
 5704TIP3    H133684   2.315   3.260   7.268 -1.1546 -0.7332 -0.8050
 5704TIP3    H233685   2.448   3.189   7.250 -0.5009  1.0109 -3.3922
 5705TIP3   OH233686   6.371   5.179   9.193  0.0253  0.3799 -0.4074
 5705TIP3    H133687   6.301   5.177   9.258 -1.9749  0.4330 -2.4373
 5705TIP3    H233688   6.451   5.167   9.243 -1.5686 -1.7095  1.8218
 5706TIP3   OH233689   2.831   0.994   3.716  0.3526 -0.2498 -0.6205
 5706TIP3    H133690   2.779   1.068   3.686  0.6835  0.0167 -0.5503
 5706TIP3    H233691   2.786   0.964   3.795  0.8487  0.6108  0.0123
 5707TIP3   OH233692   2.035   5.700   1.294 -0.2746 -0.0671 -0.6662
 5707TIP3    H133693   2.082   5.702   1.378 -0.0199 -0.1077 -0.8078
 5707TIP3    H233694   2.103   5.690   1.228 -0.4335  0.4052 -0.9096
 5708TIP3   OH233695   2.846   3.992   2.663  0.4069  0.1203  0.1924
 5708TIP3    H133696   2.758   3.961   2.684  0.6950 -1.6767 -1.0193
 5708TIP3    H233697   2.903   3.943   2.722  0.7367 -0.2222 -0.4061
 5709TIP3   OH233698   5.064   3.371   2.043  0.1884  0.2944 -0.0414
 5709TIP3    H133699   5.021   3.412   2.118  1.3673  1.6451 -0.0565
 5709TIP3    H233700   5.052   3.434   1.972 -1.0045 -1.0151 -1.0592
 5710TIP3   OH233701   0.228   3.640   9.063 -0.6975  0.5889  0.3274
 5710TIP3    H133702   0.249   3.699   9.135 -1.0129  1.2927 -0.1485
 5710TIP3    H233703   0.262   3.683   8.985 -0.3676 -0.1610  0.0425
 5711TIP3   OH233704   3.033   4.617   7.672  0.1962 -0.5698  0.2506
 5711TIP3    H133705   2.966   4.635   7.738 -1.8594 -1.7507 -1.3654
 5711TIP3    H233706   3.077   4.538   7.703 -0.4693 -0.8837  0.4188
 5712TIP3   OH233707   6.322   3.673   7.474 -0.2037 -0.0928 -0.4460
 5712TIP3    H133708   6.317   3.721   7.391 -0.3360 -1.1520 -1.0832
 5712TIP3    H233709   6.267   3.723   7.534  1.9848  2.1791 -0.1740
 5713TIP3   OH233710   6.034   5.969   9.416  0.1792  0.2978 -0.1661
 5713TIP3    H133711   6.101   5.943   9.353 -1.6767  0.5234 -2.3479
 5713TIP3    H233712   5.995   6.048   9.379 -1.6978 -0.1589  0.7026
 5714TIP3   OH233713   1.848   1.500   0.013 -0.7586  0.2116 -0.4908
 5714TIP3    H133714   1.894   1.519   0.094 -2.8970 -1.4344  1.2226
 5714TIP3    H233715   1.798   1.579  -0.006 -0.5154  0.4736 -0.0530
 5715TIP3   OH233716   4.105   3.666   0.270 -0.4841 -0.0227  0.4361
 5715TIP3    H133717   4.165   3.675   0.196 -1.0621  0.7152  0.0459
 5715TIP3    H233718   4.147   3.713   0.341  0.7134 -1.8430  1.0030
 5716TIP3   OH233719   6.387   3.110   0.681  0.0415 -0.5010 -0.5202
 5716TIP3    H133720   6.452   3.105   0.752 -0.5376  1.0151  0.1601
 5716TIP3    H233721   6.306   3.077   0.720 -0.6191  1.5852  0.0183
 5717TIP3   OH233722   3.781   0.610   9.245 -0.3472 -0.0028 -0.1046
 5717TIP3    H133723   3.757   0.521   9.271  1.0473 -0.4025 -0.1019
 5717TIP3    H233724   3.842   0.598   9.173 -0.0729  0.9446 -0.0403
 5718TIP3   OH233725   3.585   3.526   7.086 -0.1854 -0.3776  0.0416
 5718TIP3    H133726   3.504   3.490   7.051  0.5394 -0.0092 -2.2482
 5718TIP3    H233727   3.558   3.594   7.147 -1.6036 -0.0497 -0.9139
 5719TIP3   OH233728   5.871   3.574   0.963  0.0949  0.3760 -0.2960
 5719TIP3    H133729   5.779   3.562   0.943  0.1991  0.4465 -0.8374
 5719TIP3    H233730   5.916   3.507   0.912  0.2353 -0.7612  1.2461
 5720TIP3   OH233731   3.360   1.819   6.423  1.2713 -0.1477 -0.5532
 5720TIP3    H133732   3.379   1.910   6.399 -3.3826  1.9150  2.0784
 5720TIP3    H233733   3.387   1.812   6.515 -0.0795 -0.7433 -0.1759
 5721TIP3   OH233734   4.497   5.118   2.109 -0.0450  0.2430 -0.2659
 5721TIP3    H133735   4.404   5.109   2.087 -0.0319 -1.9792  0.3466
 5721TIP3    H233736   4.516   5.210   2.092 -2.1471  0.5864 -1.1802
 5722TIP3   OH233737   2.256   4.214   8.505 -0.2009  0.0416  0.4836
 5722TIP3    H133738   2.276   4.150   8.573 -0.0623 -0.3952  0.0378
 5722TIP3    H233739   2.178   4.178   8.462  1.3765 -1.2159 -1.4813
 5723TIP3   OH233740   4.926   2.344   8.731  0.0182  0.1239 -0.2982
 5723TIP3    H133741   4.965   2.414   8.679  1.1127 -0.7594 -0.7190
 5723TIP3    H233742   4.998   2.282   8.745 -1.2050 -1.5589 -1.0741
 5724TIP3   OH233743   5.894   4.410   9.105 -0.2478 -0.1936  0.2846
 5724TIP3    H133744   5.931   4.323   9.089  0.1032  0.1914 -1.1346
 5724TIP3    H233745   5.953   4.470   9.059 -2.1760  0.5054 -1.4030
 5725TIP3   OH233746   4.368   5.033   7.705 -0.3975  0.3881  0.0790
 5725TIP3    H133747   4.328   5.003   7.623 -2.3959  1.2651  0.6595
 5725TIP3    H233748   4.455   5.064   7.679 -0.0754 -1.4480 -1.2863
 5726TIP3   OH233749   0.216   2.959   0.149 -0.2791 -0.6460 -0.7023
 5726TIP3    H133750   0.201   2.880   0.096  1.2860  0.2044 -2.5329
 5726TIP3    H233751   0.284   2.934   0.211 -0.3662 -0.9574 -0.7299
 5727TIP3   OH233752   2.031   1.745   9.022  0.5192 -0.3001  0.1942
 5727TIP3    H133753   2.095   1.795   9.074  0.6668  1.1864 -1.3509
 5727TIP3    H233754   2.071   1.736   8.936 -1.2397  0.4818 -0.7603
 5728TIP3   OH233755   6.368   0.912   1.659 -0.1789 -0.4434 -0.1246
 5728TIP3    H133756   6.336   0.967   1.730 -1.3726  0.8073 -1.5753
 5728TIP3    H233757   6.461   0.899   1.679  0.2769  2.4716  0.0781
 5729TIP3   OH233758   4.002   0.079   1.492  0.7482  0.2320 -0.3047
 5729TIP3    H133759   4.040   0.032   1.566  1.4551  0.4130 -0.5423
 5729TIP3    H233760   3.914   0.102   1.521  0.4590 -1.0442 -0.1031
 5730TIP3   OH233761   2.299   5.508   2.397 -0.0995  0.3450 -1.2041
 5730TIP3    H133762   2.292   5.546   2.309 -3.0851 -0.9641 -1.6684
 5730TIP3    H233763   2.226   5.546   2.445  1.6888  1.2953  0.9276
 5731TIP3   OH233764   3.954   6.360   1.258 -0.0514  0.3648  0.5418
 5731TIP3    H133765   3.971   6.418   1.184  3.2101 -1.7097 -0.5697
 5731TIP3    H233766   3.995   6.403   1.333  0.2396  0.6006  0.2474
 5732TIP3   OH233767   4.551   3.291   9.226 -0.4210 -0.0888 -0.1345
 5732TIP3    H133768   4.631   3.246   9.199 -0.0893  0.9984 -1.0632
 5732TIP3    H233769   4.491   3.280   9.151 -0.3706  0.8884 -0.3340
 5733TIP3   OH233770   0.829   3.793   6.483 -0.6037 -0.0192  0.0093
 5733TIP3    H133771   0.774   3.716   6.470 -0.2117 -0.1452 -0.9636
 5733TIP3    H233772   0.891   3.768   6.551 -1.0246 -0.2555  0.3149
 5734TIP3   OH233773   1.329   2.282   8.963  0.1071  0.0006 -0.0782
 5734TIP3    H133774   1.424   2.279   8.951  0.5332  0.0209  2.5923
 5734TIP3    H233775   1.311   2.374   8.982 -0.1679 -0.2595  0.9993
 5735TIP3   OH233776   3.420   6.297   8.728  0.5702  0.2937  0.0048
 5735TIP3    H133777   3.441   6.269   8.817  1.1862  1.0211  0.0979
 5735TIP3    H233778   3.498   6.344   8.699  0.2456  0.3437 -0.7998
 5736TIP3   OH233779   2.018   6.047   2.777  0.1753  0.4414  0.4242
 5736TIP3    H133780   2.091   6.088   2.730  0.8512 -1.6875 -0.4691
 5736TIP3    H233781   2.032   6.072   2.868 -1.2109  4.7281 -0.3001
 5737TIP3   OH233782   3.138   3.125   1.301  0.0830  0.4956  0.1409
 5737TIP3    H133783   3.065   3.178   1.269 -0.1743 -0.0245 -0.1535
 5737TIP3    H233784   3.156   3.064   1.229  0.9234  0.7341  0.1453
 5738TIP3   OH233785   0.139   6.434   0.236  0.1146  0.3078 -0.1944
 5738TIP3    H133786   0.103   6.353   0.273 -0.5926  0.2703 -0.9558
 5738TIP3    H233787   0.162   6.487   0.313  0.0350 -0.3664  0.3054
 5739TIP3   OH233788   3.764   2.160   2.239 -0.3290 -0.5695 -0.0238
 5739TIP3    H133789   3.802   2.080   2.203  0.6298 -0.4575  0.6935
 5739TIP3    H233790   3.822   2.183   2.312 -0.7143  0.6599 -0.0861
 5740TIP3   OH233791   2.894   5.963   1.715 -0.5697 -0.9892  0.5411
 5740TIP3    H133792   2.827   5.937   1.778  0.5065 -1.0950  1.6548
 5740TIP3    H233793   2.913   5.883   1.666 -1.0105 -1.0377  0.4437
 5741TIP3   OH233794   6.075   2.360   0.718 -0.5075  0.0798  0.2846
 5741TIP3    H133795   6.117   2.274   0.721  0.2373  0.4036 -0.6540
 5741TIP3    H233796   6.105   2.403   0.798 -0.7570 -0.4663  0.6806
 5742TIP3   OH233797   1.432   5.411   1.493  0.7461 -0.2437  0.5849
 5742TIP3    H133798   1.348   5.449   1.519  0.7314  2.2379 -2.5280
 5742TIP3    H233799   1.409   5.336   1.439  0.6541 -0.9793  1.6060
 5743TIP3   OH233800   5.817   3.990   8.356  0.1468  0.5036 -0.1315
 5743TIP3    H133801   5.776   4.034   8.282 -0.1578  1.6890  0.7167
 5743TIP3    H233802   5.754   3.921   8.380 -1.0316  1.8028  0.6628
 5744TIP3   OH233803   1.701   3.439   8.881  0.4260 -0.1176  0.1129
 5744TIP3    H133804   1.764   3.444   8.953  2.4415  1.1693 -1.6082
 5744TIP3    H233805   1.687   3.346   8.868  2.2206 -0.4784  0.4141
 5745TIP3   OH233806   0.930   2.592   8.950  0.2759  0.4288 -0.0019
 5745TIP3    H133807   0.940   2.681   8.984  0.4084  0.5870 -0.4553
 5745TIP3    H233808   0.860   2.554   9.004 -0.8917  1.3240 -0.8259
 5746TIP3   OH233809   1.299   1.917   9.420  0.7486 -0.0042 -0.2589
 5746TIP3    H133810   1.209   1.951   9.417  1.1272  1.7327  3.1061
 5746TIP3    H233811   1.290   1.824   9.399 -1.6985  0.2759 -0.7958
 5747TIP3   OH233812   5.272   5.695   9.181 -0.3441  0.2878 -0.3252
 5747TIP3    H133813   5.325   5.653   9.248 -2.3677 -1.9785 -0.0150
 5747TIP3    H233814   5.198   5.732   9.228 -1.1885 -0.3022 -1.1584
 5748TIP3   OH233815   3.807   3.506   0.298 -0.4872  0.1880 -0.3244
 5748TIP3    H133816   3.831   3.413   0.290 -0.8756  0.2042 -2.0603
 5748TIP3    H233817   3.712   3.504   0.314 -0.4566  0.2779 -0.1369
 5749TIP3   OH233818   3.169   0.505   7.121 -0.4051  0.0885 -0.1477
 5749TIP3    H133819   3.134   0.548   7.199 -0.6308  0.4151 -0.4271
 5749TIP3    H233820   3.127   0.550   7.047 -0.6983 -0.6561 -0.4435
 5750TIP3   OH233821   6.299   4.267   2.422 -0.4619  0.1432  0.2176
 5750TIP3    H133822   6.314   4.173   2.426  2.3682  0.3770 -1.8253
 5750TIP3    H233823   6.384   4.306   2.439 -1.3692  2.3186  0.1572
 5751TIP3   OH233824   2.981   0.625   7.729  0.1376  0.1370 -0.0865
 5751TIP3    H133825   2.968   0.704   7.678 -1.7462 -0.0392  0.0548
 5751TIP3    H233826   2.962   0.651   7.819 -3.0875 -0.9411 -0.3189
 5752TIP3   OH233827   5.484   3.110   6.921 -0.7859  0.2440 -0.3235
 5752TIP3    H133828   5.401   3.153   6.944 -0.9326  0.0069 -0.4089
 5752TIP3    H233829   5.515   3.159   6.845 -1.1410 -0.0321 -0.6529
 5753TIP3   OH233830   4.599   0.098   1.718  0.2782 -0.2366  0.1069
 5753TIP3    H133831   4.637   0.050   1.645 -0.5703 -0.4389 -0.2119
 5753TIP3    H233832   4.542   0.034   1.761  0.4950 -0.0135  0.7363
 5754TIP3   OH233833   6.431   5.836   6.651 -0.1176  0.4305 -0.5477
 5754TIP3    H133834   6.453   5.784   6.574  2.4984  0.0667  0.3226
 5754TIP3    H233835   6.367   5.900   6.620 -0.3256 -0.6910 -2.6210
 5755TIP3   OH233836   6.119   1.126   9.384  1.0030  0.1349  0.0993
 5755TIP3    H133837   6.173   1.087   9.453  0.5045  1.4880  1.2646
 5755TIP3    H233838   6.181   1.179   9.333  1.4700 -1.2480 -0.8539
 5756TIP3   OH233839   5.673   5.546   8.038  0.1016  0.3857 -0.4561
 5756TIP3    H133840   5.624   5.539   8.120  1.2515 -0.1795  0.2092
 5756TIP3    H233841   5.751   5.493   8.052  0.3586  0.3334 -1.9044
 5757TIP3   OH233842   1.306   2.124   7.549 -0.3618 -0.1722 -0.3162
 5757TIP3    H133843   1.328   2.178   7.473 -0.4729 -1.3598 -1.2025
 5757TIP3    H233844   1.217   2.150   7.572 -0.8133 -0.7258 -1.4048
 5758TIP3   OH233845   1.570   5.960   8.860 -0.6545  0.3997  0.3259
 5758TIP3    H133846   1.600   5.938   8.772 -1.5013  0.1981  0.0732
 5758TIP3    H233847   1.632   6.026   8.891 -0.5399  0.7234 -0.5587
 5759TIP3   OH233848   6.460   1.690   8.072  0.5000 -0.5479 -0.1324
 5759TIP3    H133849   6.447   1.601   8.105  1.7115 -0.8429 -0.3973
 5759TIP3    H233850   6.377   1.733   8.087  0.5180 -1.1120  1.9121
 5760TIP3   OH233851   3.975   6.056   8.265 -0.6508 -0.3631  0.2944
 5760TIP3    H133852   4.010   6.043   8.177 -1.1184 -0.0052  0.0513
 5760TIP3    H233853   3.907   5.988   8.274  0.1765 -1.1405  0.8130
 5761TIP3   OH233854   5.408   2.784   8.417  0.2253  0.0119 -0.1607
 5761TIP3    H133855   5.376   2.769   8.506  1.5291  1.1690  0.5346
 5761TIP3    H233856   5.414   2.879   8.409 -1.0473 -0.0016 -1.9506
 5762TIP3   OH233857   4.636   0.824   1.937  0.2241  0.8482 -0.2080
 5762TIP3    H133858   4.672   0.754   1.992 -0.2271  0.0506 -0.9095
 5762TIP3    H233859   4.578   0.873   1.996 -0.8452 -0.4543 -0.1342
 5763TIP3   OH233860   3.443   1.878   8.107 -0.0337  0.0794 -0.0356
 5763TIP3    H133861   3.489   1.820   8.046 -1.0124  0.7558 -1.4961
 5763TIP3    H233862   3.501   1.953   8.116 -0.7628  0.9346 -1.8748
 5764TIP3   OH233863   5.509   0.612   9.032 -0.0736  0.0893  0.0960
 5764TIP3    H133864   5.441   0.664   8.990  0.7563  1.5670  0.5151
 5764TIP3    H233865   5.565   0.676   9.076 -0.9280 -1.3591  3.5471
 5765TIP3   OH233866   4.053   6.047   0.898 -0.0733  0.0639  0.2125
 5765TIP3    H133867   4.027   6.137   0.918 -1.0798 -0.3181  0.7012
 5765TIP3    H233868   3.983   6.014   0.842  1.2409  0.1695 -1.5663
 5766TIP3   OH233869   0.689   0.201   0.324 -0.6859  0.5017  0.1390
 5766TIP3    H133870   0.764   0.177   0.379  0.2816  2.8759  0.0098
 5766TIP3    H233871   0.726   0.213   0.237 -1.6521 -0.3885 -0.4085
 5767TIP3   OH233872   6.201   4.717   8.275  0.2719 -0.3791  0.2448
 5767TIP3    H133873   6.236   4.642   8.228 -0.8694 -0.3528 -0.6834
 5767TIP3    H233874   6.233   4.793   8.226 -0.6968 -0.3449 -0.3557
 5768TIP3   OH233875   0.937   3.047   6.760 -0.0333  0.2523  0.0529
 5768TIP3    H133876   0.985   3.126   6.737 -0.6214  0.1482 -1.7352
 5768TIP3    H233877   0.848   3.063   6.727 -0.5434 -0.5682  0.9876
 5769TIP3   OH233878   3.451   0.345   2.648  0.1083  0.2097 -0.1375
 5769TIP3    H133879   3.513   0.417   2.662  2.8467 -2.0488  0.1756
 5769TIP3    H233880   3.420   0.323   2.736  0.8426 -0.2844  0.0015
 5770TIP3   OH233881   1.833   0.262   1.939 -0.1940 -0.4298  0.0467
 5770TIP3    H133882   1.789   0.255   1.854 -0.0647 -0.2635 -0.0352
 5770TIP3    H233883   1.794   0.193   1.992  0.0175 -0.7978 -0.2765
 5771TIP3   OH233884   2.242   0.498   6.052 -0.0324 -0.1841  0.1015
 5771TIP3    H133885   2.204   0.418   6.086  0.3241 -0.1077  0.7036
 5771TIP3    H233886   2.263   0.549   6.130  0.5664  0.1107 -0.2465
 5772TIP3   OH233887   6.133   1.951   0.058  0.4095 -0.1095  0.1358
 5772TIP3    H133888   6.197   1.985   0.120  1.5631 -0.0994 -1.0086
 5772TIP3    H233889   6.168   1.867   0.030 -0.9713 -0.9390  0.7755
 5773TIP3   OH233890   0.774   2.462   0.109  0.0959 -0.2412 -0.0569
 5773TIP3    H133891   0.711   2.487   0.042  0.0954 -2.3516 -0.9058
 5773TIP3    H233892   0.792   2.369   0.093  1.9767 -0.1918  1.3402
 5774TIP3   OH233893   4.470   5.853   8.864 -0.0122  0.4360  0.6242
 5774TIP3    H133894   4.510   5.936   8.837  0.6844  0.1484  0.7677
 5774TIP3    H233895   4.413   5.877   8.937  0.7274  0.6921  1.1330
 5775TIP3   OH233896   5.563   0.243   9.346 -0.3929  0.8559  0.4187
 5775TIP3    H133897   5.595   0.326   9.312  1.5981  0.2276  0.6264
 5775TIP3    H233898   5.514   0.204   9.274 -0.7539  1.8875  0.0965
 5776TIP3   OH233899   4.813   0.183   3.038  0.0196  0.0564 -0.1958
 5776TIP3    H133900   4.865   0.223   2.968  0.3106  1.8077  0.9896
 5776TIP3    H233901   4.870   0.114   3.073  1.0257  1.0548  0.1893
 5777TIP3   OH233902   1.733   2.975   1.843 -0.3286 -0.7994 -0.1372
 5777TIP3    H133903   1.803   3.030   1.878  0.8578 -1.1690 -1.8026
 5777TIP3    H233904   1.751   2.888   1.879  1.3549 -1.3558 -2.1152
 5778TIP3   OH233905   2.916   5.011   8.183 -0.5267 -0.4412 -0.2113
 5778TIP3    H133906   2.847   4.949   8.205 -1.3385  0.2540 -0.7045
 5778TIP3    H233907   2.997   4.966   8.206 -1.1238 -1.3933  0.1083
 5779TIP3   OH233908   4.516   3.301   8.181 -0.1933 -0.3869 -0.1334
 5779TIP3    H133909   4.523   3.352   8.101 -0.1814  1.1290  0.7959
 5779TIP3    H233910   4.424   3.275   8.186 -0.0243 -1.2039 -1.0356
 5780TIP3   OH233911   4.515   3.121   8.734 -0.6575 -0.0081  0.2867
 5780TIP3    H133912   4.438   3.065   8.750 -0.6677  0.0686  0.5218
 5780TIP3    H233913   4.551   3.090   8.651 -1.0786  0.1101  0.0579
 5781TIP3   OH233914   1.109   3.103   7.644 -0.0150  0.6650  0.4906
 5781TIP3    H133915   1.029   3.147   7.673 -1.3584 -0.6280 -1.0681
 5781TIP3    H233916   1.178   3.141   7.698 -1.4646  2.8217  0.9431
 5782TIP3   OH233917   1.170   4.019   8.360  0.8377 -0.4563 -0.1197
 5782TIP3    H133918   1.132   4.103   8.386  0.6965  0.1631 -2.1318
 5782TIP3    H233919   1.261   4.023   8.390  0.0686 -0.9191  2.5282
 5783TIP3   OH233920   5.925   0.504   0.264 -0.7157  0.1188 -0.1290
 5783TIP3    H133921   5.870   0.484   0.339 -0.6409 -0.4122 -0.2133
 5783TIP3    H233922   5.880   0.575   0.219 -1.5526 -0.5878 -0.4247
 5784TIP3   OH233923   3.735   0.517   1.209 -0.4631  0.0248  0.1087
 5784TIP3    H133924   3.707   0.579   1.142 -1.0062  1.5190  1.6360
 5784TIP3    H233925   3.831   0.519   1.204 -0.4932  0.2914 -0.4617
 5785TIP3   OH233926   3.227   3.296   2.217 -0.1941 -0.0795 -0.3330
 5785TIP3    H133927   3.265   3.333   2.297  0.9539  0.8096 -1.2601
 5785TIP3    H233928   3.262   3.207   2.213  0.0907  0.0184 -0.0792
 5786TIP3   OH233929   0.300   0.343   0.265 -0.1498 -0.3984  0.2057
 5786TIP3    H133930   0.208   0.323   0.278 -0.2665  0.4570  0.7833
 5786TIP3    H233931   0.339   0.261   0.235 -1.3496 -0.4232 -1.4006
 5787TIP3   OH233932   0.418   3.587   0.877 -0.2208  0.7506 -0.0854
 5787TIP3    H133933   0.335   3.635   0.874 -1.2767 -1.0345 -2.4068
 5787TIP3    H233934   0.393   3.495   0.865  1.9747 -0.0605  1.0240
 5788TIP3   OH233935   2.750   0.109   2.207  0.2963 -0.4389  0.3294
 5788TIP3    H133936   2.678   0.118   2.144 -0.3856  0.8952  1.2631
 5788TIP3    H233937   2.725   0.165   2.280  1.3105 -1.5826  1.5890
 5789TIP3   OH233938   0.929   0.635   8.278  0.2086  0.2479 -0.0802
 5789TIP3    H133939   0.846   0.661   8.239  0.0030 -2.0350 -1.3494
 5789TIP3    H233940   0.908   0.617   8.369 -0.5598  0.2227 -0.2552
 5790TIP3   OH233941   4.434   1.989   7.595 -0.5575 -0.0323  0.6825
 5790TIP3    H133942   4.344   1.957   7.590 -1.0003  1.1600  0.8668
 5790TIP3    H233943   4.487   1.909   7.601 -1.5436 -0.7770 -0.1010
 5791TIP3   OH233944   3.639   1.174   8.317  0.8170 -0.1081 -0.0988
 5791TIP3    H133945   3.592   1.158   8.235  0.4192 -1.5909  0.3920
 5791TIP3    H233946   3.631   1.269   8.330  0.0416  0.0144 -1.2690
 5792TIP3   OH233947   2.987   0.539   2.501 -0.1612 -0.5489 -0.1224
 5792TIP3    H133948   2.934   0.590   2.440 -1.2703  2.0972  2.7841
 5792TIP3    H233949   3.077   0.567   2.484 -0.1568 -1.4925 -1.8847
 5793TIP3   OH233950   5.187   6.294   7.236  0.3860  0.0384  0.2993
 5793TIP3    H133951   5.120   6.252   7.290  0.5011  0.2927  0.6342
 5793TIP3    H233952   5.146   6.302   7.150  1.1262 -2.9049 -0.4675
 5794TIP3   OH233953   6.027   0.359   7.899 -0.0634 -0.1189 -0.0309
 5794TIP3    H133954   6.069   0.288   7.851 -1.1559  1.1367 -3.1040
 5794TIP3    H233955   6.096   0.424   7.910  0.6748 -1.1675  1.8782
 5795TIP3   OH233956   2.326   3.749   1.489  0.9829 -1.2382  0.5593
 5795TIP3    H133957   2.292   3.668   1.450  2.6981 -2.1323  0.8111
 5795TIP3    H233958   2.384   3.785   1.422 -0.9818  0.7407 -0.2233
 5796TIP3   OH233959   5.757   2.496   0.403  0.0702  0.5497 -0.3263
 5796TIP3    H133960   5.725   2.586   0.395  0.6358  0.8219  0.3821
 5796TIP3    H233961   5.851   2.505   0.411  0.2136 -0.1702 -1.0559
 5797TIP3   OH233962   1.022   3.254   2.889  0.1503 -0.4278  0.4572
 5797TIP3    H133963   0.939   3.221   2.923  0.8547 -1.0598  1.6256
 5797TIP3    H233964   1.051   3.318   2.955  0.8573 -0.6192  0.3395
 5798TIP3   OH233965   2.578   2.140   6.623 -0.0905  0.0675  0.1938
 5798TIP3    H133966   2.635   2.211   6.653 -1.5666  1.2463  0.2732
 5798TIP3    H233967   2.583   2.144   6.528  1.0243 -0.7504  0.1913
 5799TIP3   OH233968   2.478   2.280   1.046 -0.4125  0.5705  0.1478
 5799TIP3    H133969   2.469   2.375   1.057  0.6129  0.5893  0.9708
 5799TIP3    H233970   2.571   2.268   1.025 -0.8770 -0.1087 -1.7302
 5800TIP3   OH233971   0.732   2.060   7.860 -0.4705  0.7560 -0.1336
 5800TIP3    H133972   0.740   2.123   7.788 -0.2791  1.0548  0.1475
 5800TIP3    H233973   0.749   2.112   7.939  1.9761 -0.0978 -0.0293
 5801TIP3   OH233974   4.421   2.813   1.243 -0.1692 -0.1758  0.1430
 5801TIP3    H133975   4.493   2.789   1.302  1.4206 -0.0059 -1.6208
 5801TIP3    H233976   4.445   2.901   1.212 -1.0058 -0.2248 -0.6702
 5802TIP3   OH233977   4.404   4.663   2.210  0.1221  0.1642  0.5726
 5802TIP3    H133978   4.469   4.725   2.177 -0.4355  0.7218  0.5153
 5802TIP3    H233979   4.338   4.717   2.253  1.2174 -0.5660  3.3919
 5803TIP3   OH233980   0.232   2.121   0.844 -0.2466  0.1304 -0.3520
 5803TIP3    H133981   0.158   2.061   0.848 -0.6489  0.5471 -1.4066
 5803TIP3    H233982   0.238   2.158   0.932 -0.3022 -1.0716  0.1758
 5804TIP3   OH233983   5.762   0.848   6.705  0.4607  0.5674 -0.3253
 5804TIP3    H133984   5.826   0.917   6.723  0.7548 -0.1809  1.7993
 5804TIP3    H233985   5.694   0.860   6.771 -0.1150 -0.4152 -0.7069
 5805TIP3   OH233986   4.523   6.177   9.425  0.0386  0.6749 -0.1510
 5805TIP3    H133987   4.435   6.156   9.395  0.2689 -2.7112  1.0979
 5805TIP3    H233988   4.580   6.156   9.351 -0.0043 -0.0669  0.0178
 5806TIP3   OH233989   1.197   4.179   7.252  0.7548  0.3461  0.1235
 5806TIP3    H133990   1.217   4.087   7.236  0.2263 -0.3234  2.7395
 5806TIP3    H233991   1.147   4.179   7.334 -0.3868  2.8705 -0.4579
 5807TIP3   OH233992   2.477   4.681   0.688 -0.0706 -0.1355  0.4574
 5807TIP3    H133993   2.572   4.694   0.686  0.1247 -1.3620  0.9839
 5807TIP3    H233994   2.457   4.665   0.780 -1.1663  2.4528  0.7529
 5808TIP3   OH233995   5.899   5.482   8.819 -0.0114 -0.1316 -0.3067
 5808TIP3    H133996   5.893   5.399   8.771 -0.3049  0.4899 -1.3604
 5808TIP3    H233997   5.933   5.457   8.905 -0.2143 -1.3635 -0.5660
 5809TIP3   OH233998   3.761   6.083   9.061 -0.0617  0.1874  0.2665
 5809TIP3    H133999   3.722   6.058   8.976 -2.2408  1.8524  0.7033
 5809TIP3    H234000   3.772   5.999   9.107  0.0344 -0.6379 -1.1894
 5810TIP3   OH234001   3.074   6.186   0.849  0.1342  0.5649 -0.2211
 5810TIP3    H134002   3.030   6.236   0.917 -0.3263  0.1948 -0.2380
 5810TIP3    H234003   3.167   6.200   0.864  0.0221  0.8629  0.1938
 5811TIP3   OH234004   3.178   4.135   7.517 -0.1101  0.2131  0.5721
 5811TIP3    H134005   3.202   4.091   7.436 -2.2938 -2.1435  1.0887
 5811TIP3    H234006   3.086   4.161   7.504 -0.1932  0.6881  1.9409
 5812TIP3   OH234007   3.422   4.107   0.291 -0.0802  0.6640  0.3609
 5812TIP3    H134008   3.399   4.053   0.215 -0.7104  0.2194  0.8580
 5812TIP3    H234009   3.518   4.111   0.289 -0.0589  0.0700 -0.0564
 5813TIP3   OH234010   1.208   1.963   2.627 -0.5030 -1.1522  0.5719
 5813TIP3    H134011   1.271   1.993   2.691  0.8777 -2.2510 -0.2296
 5813TIP3    H234012   1.217   1.868   2.626 -1.5853 -1.2660 -0.1534
 5814TIP3   OH234013   4.505   5.705   7.841  0.4518  0.2936  0.4723
 5814TIP3    H134014   4.515   5.663   7.926  0.6782  0.2051  0.4041
 5814TIP3    H234015   4.519   5.798   7.858 -0.7631  0.4384  0.7457
 5815TIP3   OH234016   5.938   4.129   7.313 -0.2209  0.5199 -0.0304
 5815TIP3    H134017   6.023   4.105   7.351 -0.2195  1.1184  0.3678
 5815TIP3    H234018   5.874   4.103   7.380 -0.3849 -0.2465 -0.4769
 5816TIP3   OH234019   3.366   3.098   1.454 -0.0403 -0.5788  0.0417
 5816TIP3    H134020   3.310   3.128   1.383 -0.7648 -3.8845 -0.9279
 5816TIP3    H234021   3.324   3.134   1.533 -1.8427 -0.5491 -0.8638
 5817TIP3   OH234022   5.699   3.775   7.322  0.5309 -0.4358 -0.0961
 5817TIP3    H134023   5.715   3.863   7.358  2.1721 -1.5980  2.3265
 5817TIP3    H234024   5.775   3.758   7.267  0.5099 -0.5609 -0.0850
 5818TIP3   OH234025   1.497   5.538   0.712 -0.1755  0.3363  0.2866
 5818TIP3    H134026   1.568   5.474   0.702  1.6969  2.5077 -1.6074
 5818TIP3    H234027   1.518   5.585   0.793  0.4027  0.7432 -0.0893
 5819TIP3   OH234028   4.372   2.364   8.713 -0.1339 -0.1724  0.3884
 5819TIP3    H134029   4.298   2.329   8.665 -0.7838  0.8360  0.6043
 5819TIP3    H234030   4.337   2.443   8.756  0.5308 -0.7700  2.1223
 5820TIP3   OH234031   4.615   0.154   3.218 -0.0895  0.8192  0.0500
 5820TIP3    H134032   4.600   0.080   3.159  0.9945 -1.1503  2.0967
 5820TIP3    H234033   4.693   0.197   3.182  0.1120  0.1112 -0.3856
 5821TIP3   OH234034   5.792   5.057   1.660  0.0699 -0.1103  0.2552
 5821TIP3    H134035   5.736   5.070   1.736 -1.0645  0.6428 -0.6707
 5821TIP3    H234036   5.865   5.118   1.673 -0.4397  0.4718  0.4506
 5822TIP3   OH234037   2.262   0.458   0.052  0.4834 -0.0631 -0.0008
 5822TIP3    H134038   2.312   0.387   0.013  0.7267  0.8163 -1.3559
 5822TIP3    H234039   2.299   0.537   0.013 -2.5592  0.5974 -1.8254
 5823TIP3   OH234040   3.262   5.357   8.153 -0.0635 -0.4577  0.2044
 5823TIP3    H134041   3.347   5.314   8.151 -0.1547 -0.6268 -0.0116
 5823TIP3    H234042   3.262   5.414   8.076 -0.2310 -0.6205  0.0843
 5824TIP3   OH234043   1.499   3.224   1.620 -0.1122  0.1122  0.4560
 5824TIP3    H134044   1.419   3.248   1.667 -0.6040  1.4342 -0.9651
 5824TIP3    H234045   1.539   3.307   1.596  0.0988 -0.4814 -1.4470
 5825TIP3   OH234046   5.860   3.835   0.416 -0.1964 -0.0573  0.2354
 5825TIP3    H134047   5.816   3.846   0.332 -1.1060 -2.5553  0.2849
 5825TIP3    H234048   5.929   3.901   0.416 -0.5780  0.4376 -2.1859
 5826TIP3   OH234049   1.769   5.447   1.500  0.1974  0.2432 -0.6692
 5826TIP3    H134050   1.794   5.415   1.413 -0.3124  1.0924 -1.1364
 5826TIP3    H234051   1.677   5.471   1.491 -0.0375 -0.2884  0.2941
 5827TIP3   OH234052   3.131   3.413   8.007  0.4238 -0.2060 -0.1442
 5827TIP3    H134053   3.099   3.382   7.923 -1.5185  0.7941  0.1884
 5827TIP3    H234054   3.211   3.462   7.985  0.4266 -0.6803 -1.2798
 5828TIP3   OH234055   0.207   2.000   7.724  0.3809 -0.1402  0.7578
 5828TIP3    H134056   0.131   2.008   7.781  0.1842  0.5572  0.4038
 5828TIP3    H234057   0.223   2.088   7.692  2.3086  0.0486  2.0606
 5829TIP3   OH234058   1.374   3.037   1.826  0.7524  0.7131 -0.3455
 5829TIP3    H134059   1.362   3.123   1.786  2.2184  1.3401  0.4717
 5829TIP3    H234060   1.456   3.005   1.789 -1.4269 -2.0213 -3.4302
 5830TIP3   OH234061   3.854   1.445   7.815  0.4560 -0.5375  0.6719
 5830TIP3    H134062   3.897   1.531   7.819  0.0602 -0.3529  1.0163
 5830TIP3    H234063   3.812   1.443   7.730 -0.3126 -0.0107  1.0312
 5831TIP3   OH234064   0.137   0.673   7.989 -0.6219  0.5590  0.3623
 5831TIP3    H134065   0.064   0.614   7.968 -0.9637  1.0761  0.0756
 5831TIP3    H234066   0.184   0.683   7.907 -1.7722  2.3262 -0.1370
 5832TIP3   OH234067   2.115   0.296   0.752  0.3815  0.1878 -0.3777
 5832TIP3    H134068   2.207   0.319   0.742  0.3444  0.2529 -0.5729
 5832TIP3    H234069   2.116   0.219   0.809  0.5058  0.6559  0.2712
 5833TIP3   OH234070   1.483   0.345   8.647  0.1907  0.0376 -0.3692
 5833TIP3    H134071   1.530   0.262   8.647 -0.7486 -0.5018 -0.7657
 5833TIP3    H234072   1.521   0.394   8.573  0.0469 -0.4389 -0.7609
 5834TIP3   OH234073   5.761   4.679   0.487 -0.1531  0.3072  0.4710
 5834TIP3    H134074   5.774   4.616   0.559  1.2721 -1.3564 -1.1251
 5834TIP3    H234075   5.741   4.624   0.411 -0.3259  1.9069 -0.6874
 5835TIP3   OH234076   1.939   2.245   7.662  0.2204 -0.2627  0.2550
 5835TIP3    H134077   2.001   2.286   7.723 -0.8754  0.4617  0.9254
 5835TIP3    H234078   1.913   2.164   7.707  0.4476 -0.4171  0.1107
 5836TIP3   OH234079   2.878   2.039   8.694  0.1685 -0.0094  0.4688
 5836TIP3    H134080   2.843   1.990   8.769 -0.6501  0.3300  0.3274
 5836TIP3    H234081   2.884   2.130   8.725  0.3951  0.0321  0.3081
 5837TIP3   OH234082   4.659   4.314   1.016 -0.1040  0.1843 -0.2898
 5837TIP3    H134083   4.683   4.343   1.104 -0.3396  0.4224 -0.3017
 5837TIP3    H234084   4.715   4.364   0.958  1.9650 -1.8491 -0.2103
 5838TIP3   OH234085   5.372   6.355   9.389  0.3868  0.0029 -0.4050
 5838TIP3    H134086   5.438   6.390   9.449  0.1004 -1.3940  0.7788
 5838TIP3    H234087   5.422   6.298   9.330  0.4837  0.3843 -0.6984
 5839TIP3   OH234088   5.386   4.066   2.338  0.7989  0.4931 -0.3789
 5839TIP3    H134089   5.432   4.098   2.415 -0.4184  1.1056  0.1253
 5839TIP3    H234090   5.320   4.005   2.372 -0.6121  1.7369 -0.7584
 5840TIP3   OH234091   5.670   4.746   1.308  0.4127  0.1713 -0.0354
 5840TIP3    H134092   5.733   4.680   1.336 -0.6081 -1.1787 -0.7548
 5840TIP3    H234093   5.668   4.810   1.378 -0.3249 -1.8361  1.9113
 5841TIP3   OH234094   0.212   4.405   1.920  0.1048  0.5231  0.2384
 5841TIP3    H134095   0.133   4.440   1.962  0.4579 -0.1885  1.5393
 5841TIP3    H234096   0.222   4.318   1.957 -0.4778 -0.8428 -2.5610
 5842TIP3   OH234097   5.683   3.063   1.880 -0.1926 -0.0981 -0.3238
 5842TIP3    H134098   5.632   3.102   1.951 -0.4622  0.7396 -0.9695
 5842TIP3    H234099   5.619   3.035   1.816  0.1489  1.1536 -1.2376
 5843TIP3   OH234100   0.481   5.031   0.606  0.1311 -0.3153 -0.5373
 5843TIP3    H134101   0.468   4.973   0.531 -1.0756 -0.8826  0.0788
 5843TIP3    H234102   0.448   5.116   0.576  0.2916 -0.3698 -0.8716
 5844TIP3   OH234103   3.234   1.330   1.546  0.9758 -0.2897  0.0972
 5844TIP3    H134104   3.160   1.303   1.600 -0.7690  1.3065 -1.3591
 5844TIP3    H234105   3.309   1.330   1.605 -0.5137 -0.2843  2.0646
 5845TIP3   OH234106   5.036   0.265   2.867 -0.5488  0.0568 -0.5978
 5845TIP3    H134107   5.089   0.344   2.873  1.5710 -1.1952 -1.6500
 5845TIP3    H234108   5.093   0.195   2.898 -1.4431 -1.4128 -2.0661
 5846TIP3   OH234109   2.337   2.967   9.062  0.0050 -0.3289  0.3916
 5846TIP3    H134110   2.429   2.954   9.039 -0.1304 -1.8990  0.5874
 5846TIP3    H234111   2.333   3.055   9.099  1.1779  0.2545 -0.7775
 5847TIP3   OH234112   2.564   4.814   1.474  0.4502 -0.0799 -0.4973
 5847TIP3    H134113   2.474   4.844   1.463  0.4053 -0.8787 -3.0732
 5847TIP3    H234114   2.560   4.748   1.543 -1.0494 -0.5111 -0.9590
 5848TIP3   OH234115   5.892   6.254  -0.013  0.0806  0.3400  0.0627
 5848TIP3    H134116   5.906   6.262   0.081 -1.5391  0.3980  0.3213
 5848TIP3    H234117   5.805   6.215  -0.022 -0.0699  0.9196 -1.4201
 5849TIP3   OH234118   5.969   1.711   1.373 -0.2696 -0.2708 -0.4143
 5849TIP3    H134119   5.940   1.645   1.310  1.3783 -0.8027 -0.6680
 5849TIP3    H234120   5.965   1.667   1.458 -0.7051 -0.1692 -0.3825
 5850TIP3   OH234121   5.615   4.870   1.562  0.0255  0.8073  0.6841
 5850TIP3    H134122   5.637   4.792   1.611  0.9598 -0.4601 -1.6103
 5850TIP3    H234123   5.686   4.932   1.580  0.3519  0.3639  0.9114
 5851TIP3   OH234124   1.005   4.699   9.235 -1.1039 -0.7649  0.0776
 5851TIP3    H134125   0.916   4.690   9.270 -1.4529 -0.4981 -0.6864
 5851TIP3    H234126   0.998   4.773   9.174  0.0989  0.4917  1.4034
 5852TIP3   OH234127   3.413   3.849   0.809 -0.1100  0.1930 -0.3675
 5852TIP3    H134128   3.430   3.811   0.896 -2.1797 -0.1127 -0.0272
 5852TIP3    H234129   3.408   3.773   0.751  1.0568  0.3833 -0.7336
 5853TIP3   OH234130   1.911   1.336   1.655  0.1550  0.0217  0.3763
 5853TIP3    H134131   1.975   1.275   1.619  0.0742  0.1551  0.0061
 5853TIP3    H234132   1.873   1.380   1.579 -0.4884 -0.1679  0.5816
 5854TIP3   OH234133   5.023   4.435   8.003  0.1519 -0.4687  0.0984
 5854TIP3    H134134   5.041   4.529   8.009 -0.2034 -0.2993 -1.1962
 5854TIP3    H234135   5.079   4.405   7.931 -0.3457 -1.0853 -0.0412
 5855TIP3   OH234136   4.494   2.265   7.691 -0.1517 -0.1033  0.7042
 5855TIP3    H134137   4.488   2.178   7.653  1.3620  0.2074 -0.3605
 5855TIP3    H234138   4.543   2.253   7.772 -0.8475 -0.3733  1.0888
 5856TIP3   OH234139   0.343   2.009   0.532 -0.4761 -0.2267 -0.0906
 5856TIP3    H134140   0.325   2.058   0.452 -1.2002 -0.3005  0.0206
 5856TIP3    H234141   0.436   2.021   0.547 -0.5282  0.6157 -0.3958
 5857TIP3   OH234142   1.362   3.747   7.932  0.7241 -0.2253  0.2383
 5857TIP3    H134143   1.379   3.787   8.017  0.3103 -1.7969  1.1026
 5857TIP3    H234144   1.447   3.744   7.889  1.0786 -0.1116  0.9171
 5858TIP3   OH234145   2.512   5.088   0.535  0.5096  0.4200 -0.5687
 5858TIP3    H134146   2.581   5.144   0.569  1.0408 -0.5739  0.0498
 5858TIP3    H234147   2.542   5.062   0.448  1.1494 -0.3654 -0.1273
 5859TIP3   OH234148   3.773   2.505   7.643 -0.7483 -0.5226 -0.3135
 5859TIP3    H134149   3.780   2.525   7.736  0.3427 -0.4930 -0.3876
 5859TIP3    H234150   3.781   2.590   7.599  0.5029 -0.7135 -0.4911
 5860TIP3   OH234151   3.465   3.607   0.688 -0.1857 -0.5504 -0.1335
 5860TIP3    H134152   3.441   3.525   0.732 -0.7356  0.1274  0.8787
 5860TIP3    H234153   3.558   3.618   0.707 -0.2359 -0.6751  0.2029
 5861TIP3   OH234154   2.468   0.272   2.731 -0.0020 -0.0019 -0.1271
 5861TIP3    H134155   2.507   0.190   2.701 -1.4542 -0.5123 -0.7195
 5861TIP3    H234156   2.392   0.284   2.675 -0.8098  0.8332  1.0950
 5862TIP3   OH234157   0.809   6.149   7.211  0.1462 -0.6191 -0.5167
 5862TIP3    H134158   0.817   6.055   7.194  4.2657 -1.3634  3.4987
 5862TIP3    H234159   0.748   6.156   7.284  0.3901 -0.2391 -0.3462
 5863TIP3   OH234160   3.042   1.671   0.099  0.0525  0.3023 -0.2014
 5863TIP3    H134161   3.070   1.583   0.123  0.3682  0.1462 -1.0874
 5863TIP3    H234162   3.055   1.723   0.178  1.1027 -0.1699 -0.0422
 5864TIP3   OH234163   0.422   5.574   7.516  0.6071  0.9044  0.1870
 5864TIP3    H134164   0.439   5.481   7.530 -0.0946  0.4833 -1.5271
 5864TIP3    H234165   0.443   5.615   7.600  0.7082 -0.8150  1.0435
 5865TIP3   OH234166   3.321   4.356   1.497  0.0214  0.5096  0.1338
 5865TIP3    H134167   3.231   4.369   1.467 -0.0612  1.2442  0.6694
 5865TIP3    H234168   3.332   4.262   1.500  0.2297  0.3522 -2.8078
 5866TIP3   OH234169   6.196   4.343   2.109  0.1644 -0.2586 -0.2232
 5866TIP3    H134170   6.149   4.269   2.147  1.2761 -0.2730  1.2409
 5866TIP3    H234171   6.146   4.420   2.138 -0.2604 -0.3791 -0.6388
 5867TIP3   OH234172   1.681   1.161   8.663 -0.0535 -0.1750 -0.1481
 5867TIP3    H134173   1.734   1.132   8.737  1.0793  0.2619 -0.7696
 5867TIP3    H234174   1.593   1.131   8.684  0.5878 -1.7312  0.4851
 5868TIP3   OH234175   0.314   1.096   7.653 -0.5305 -0.7607 -0.0985
 5868TIP3    H134176   0.315   1.115   7.559  4.2981  1.9658  0.2194
 5868TIP3    H234177   0.313   1.181   7.696  0.7021 -1.7941  2.1932
 5869TIP3   OH234178   0.774   3.159   2.945  0.3793  0.1094 -0.0478
 5869TIP3    H134179   0.715   3.177   3.018  0.4751 -0.9481  0.3032
 5869TIP3    H234180   0.733   3.087   2.897  0.4570  0.6004 -0.8927
 5870TIP3   OH234181   6.348   4.142   1.694  0.8718  0.1217  0.5357
 5870TIP3    H134182   6.443   4.134   1.686  1.0453  0.4216  1.9497
 5870TIP3    H234183   6.313   4.090   1.622  2.1044 -0.1205  0.0847
 5871TIP3   OH234184   1.287   6.147   2.210  0.2195 -0.4209  0.3345
 5871TIP3    H134185   1.263   6.076   2.269 -1.4628  0.9021  1.3229
 5871TIP3    H234186   1.236   6.222   2.240 -1.3913  0.1547 -3.2495
 5872TIP3   OH234187   3.197   5.302   9.049 -0.5392  0.5334  0.0167
 5872TIP3    H134188   3.211   5.391   9.017 -0.1913  0.5090  0.0991
 5872TIP3    H234189   3.279   5.280   9.094 -0.8660  0.4160  0.5595
 5873TIP3   OH234190   1.602   0.392   6.479  0.3148 -0.0346  0.6773
 5873TIP3    H134191   1.674   0.344   6.437 -0.1436 -0.2078  0.0805
 5873TIP3    H234192   1.574   0.335   6.550  0.0714 -0.4499  0.2516
 5874TIP3   OH234193   2.486   3.360   1.571 -0.8395 -0.2870 -0.7241
 5874TIP3    H134194   2.436   3.364   1.653 -0.0629  0.4380 -0.2784
 5874TIP3    H234195   2.422   3.380   1.503 -0.9856  1.5442 -0.0891
 5875TIP3   OH234196   2.126   5.477   8.153 -0.2601 -0.4427 -0.0833
 5875TIP3    H134197   2.195   5.540   8.132  0.6930 -1.4273 -0.0072
 5875TIP3    H234198   2.171   5.409   8.203 -1.4386 -0.7599  0.5749
 5876TIP3   OH234199   4.538   1.261   8.078  0.1033 -0.3092 -0.3219
 5876TIP3    H134200   4.468   1.256   8.012  1.3283  1.0136 -1.7885
 5876TIP3    H234201   4.592   1.184   8.061 -0.2306 -0.6042 -0.0706
 5877TIP3   OH234202   2.770   0.708   6.860 -0.3573  0.2328  0.7178
 5877TIP3    H134203   2.694   0.675   6.812 -0.5046  0.8118  0.5442
 5877TIP3    H234204   2.750   0.800   6.876  0.7666  0.6600 -0.2523
 5878TIP3   OH234205   1.027   0.703   0.213 -0.1886  0.2103  0.5939
 5878TIP3    H134206   1.115   0.699   0.175  0.5023 -1.2571  2.2208
 5878TIP3    H234207   1.020   0.792   0.247 -0.0404  0.8891 -1.0564
 5879TIP3   OH234208   0.900   5.542   1.300 -0.3231  0.2600  0.5867
 5879TIP3    H134209   0.862   5.542   1.213 -0.4579  0.9759  0.6395
 5879TIP3    H234210   0.987   5.503   1.288 -0.5443 -0.1403  0.2351
 5880TIP3   OH234211   5.229   5.646   8.821 -0.0017 -0.0906 -0.1592
 5880TIP3    H134212   5.155   5.686   8.867 -0.0408 -1.0548  0.6499
 5880TIP3    H234213   5.232   5.691   8.737 -0.8846  0.6549  0.1911
 5881TIP3   OH234214   1.484   4.338   0.834  0.0149  0.3334  0.0756
 5881TIP3    H134215   1.530   4.265   0.791 -1.6791 -0.5621 -0.2940
 5881TIP3    H234216   1.522   4.417   0.794  2.7425 -0.2155  1.3256
 5882TIP3   OH234217   6.303   5.111   2.302  0.0057  0.0741 -0.0955
 5882TIP3    H134218   6.380   5.057   2.284 -0.0544  0.1432 -0.5659
 5882TIP3    H234219   6.318   5.192   2.252 -0.3641  0.0946 -0.1777
 5883TIP3   OH234220   1.088   2.370   6.625 -0.1419 -0.0347 -0.5611
 5883TIP3    H134221   1.103   2.346   6.533 -0.1383 -0.4573 -0.4514
 5883TIP3    H234222   1.003   2.413   6.624 -0.9088 -1.4911 -0.5205
 5884TIP3   OH234223   2.937   3.324   1.240 -0.0926 -0.1452 -0.4151
 5884TIP3    H134224   3.027   3.357   1.237  0.6488 -2.0206 -0.5184
 5884TIP3    H234225   2.904   3.351   1.326  0.6324  0.3967 -0.2936
 5885TIP3   OH234226   5.234   3.158   0.318  0.1639 -0.8440  0.0843
 5885TIP3    H134227   5.280   3.092   0.266  0.3712  0.9041 -2.1078
 5885TIP3    H234228   5.150   3.169   0.275 -0.1783 -0.2408  0.8828
 5886TIP3   OH234229   5.073   1.369   9.022 -0.0882  0.0664 -0.0001
 5886TIP3    H134230   5.064   1.423   8.943  0.0777 -1.1818 -0.9089
 5886TIP3    H234231   5.139   1.414   9.074  1.0556  0.0522 -1.3690
 5887TIP3   OH234232   5.482   3.694   0.410 -0.1184 -0.0904 -0.5982
 5887TIP3    H134233   5.399   3.667   0.372 -1.1572  0.5491  1.1132
 5887TIP3    H234234   5.479   3.663   0.500  0.2116  2.3978  0.3701
 5888TIP3   OH234235   0.372   4.880   1.259  0.6679 -0.3672 -0.1223
 5888TIP3    H134236   0.407   4.822   1.327  2.1052 -0.2752 -0.7449
 5888TIP3    H234237   0.375   4.827   1.179 -1.5449 -0.6736 -0.0640
 5889TIP3   OH234238   6.171   5.860   8.980  1.1228 -0.0202 -0.6580
 5889TIP3    H134239   6.187   5.767   8.966 -0.4918 -0.2576 -1.0251
 5889TIP3    H234240   6.251   5.891   9.022  1.5186 -1.6534 -0.1347
 5890TIP3   OH234241   4.897   4.856   7.573  0.2929  0.4990 -0.4900
 5890TIP3    H134242   4.847   4.907   7.509  0.2686  2.4961  1.0361
 5890TIP3    H234243   4.984   4.895   7.572  0.8248 -0.6443 -0.5643
 5891TIP3   OH234244   2.986   1.135   7.034 -0.5902  0.1454  0.4686
 5891TIP3    H134245   3.073   1.120   6.995 -1.7906 -0.7725 -2.0719
 5891TIP3    H234246   2.947   1.203   6.980 -0.8740  1.8587  2.6860
 5892TIP3   OH234247   4.802   1.110   2.950  0.2377 -0.1978 -0.5402
 5892TIP3    H134248   4.724   1.078   2.904 -0.4146  1.9751 -1.0261
 5892TIP3    H234249   4.799   1.066   3.035 -1.2924 -0.4817 -0.7086
 5893TIP3   OH234250   2.172   2.658   1.376  0.2889 -0.1285  0.2952
 5893TIP3    H134251   2.191   2.735   1.430 -0.2289 -0.3065  0.7476
 5893TIP3    H234252   2.200   2.584   1.429 -0.9673 -0.3518  0.6899
 5894TIP3   OH234253   2.243   5.486   0.920 -0.1018 -0.5929 -0.3516
 5894TIP3    H134254   2.321   5.433   0.938  0.3660  0.1690 -0.1282
 5894TIP3    H234255   2.185   5.426   0.873 -0.5394 -2.0150  1.8712
 5895TIP3   OH234256   0.547   2.371   1.502  0.1564  0.3815 -0.0023
 5895TIP3    H134257   0.604   2.446   1.523  2.2191 -0.9868 -0.4415
 5895TIP3    H234258   0.599   2.294   1.525 -2.0783 -0.9722  0.8733
 5896TIP3   OH234259   2.041   6.121   3.082  0.2612  0.1967  0.2179
 5896TIP3    H134260   2.011   6.158   3.165  0.4647  0.9190 -0.0204
 5896TIP3    H234261   2.111   6.060   3.107 -0.9149 -1.0116  0.7197
 5897TIP3   OH234262   1.117   2.577   7.942 -0.3481  0.3960  0.1254
 5897TIP3    H134263   1.021   2.582   7.941 -0.3404  0.8000 -1.9310
 5897TIP3    H234264   1.144   2.657   7.986 -0.9456  0.1476  0.9710
 5898TIP3   OH234265   0.603   3.769   1.532 -0.6075  0.1191  0.4571
 5898TIP3    H134266   0.625   3.704   1.465 -0.5952  1.3332 -0.7536
 5898TIP3    H234267   0.510   3.754   1.551 -0.2950 -1.0888  1.1721
 5899TIP3   OH234268   4.770   4.399   8.381 -0.1160  0.1789  0.5031
 5899TIP3    H134269   4.817   4.325   8.341  0.5199  0.3491  0.9131
 5899TIP3    H234270   4.777   4.468   8.315 -2.8774 -0.8220 -0.9942
 5900TIP3   OH234271   4.613   1.490   8.834 -0.1147 -0.3802 -0.1751
 5900TIP3    H134272   4.597   1.413   8.780  1.0611 -0.4366 -0.4887
 5900TIP3    H234273   4.526   1.523   8.857 -0.6251 -1.4808 -0.4853
 5901TIP3   OH234274   5.495   3.490   2.448  0.1407 -0.2221  0.1510
 5901TIP3    H134275   5.461   3.504   2.537 -1.4686 -0.5031 -0.3768
 5901TIP3    H234276   5.434   3.538   2.392  0.6377 -0.7626 -0.8724
 5902TIP3   OH234277   2.080   4.174   7.033  0.2795 -0.8164 -0.2593
 5902TIP3    H134278   1.990   4.164   7.064 -0.4787 -0.0081 -2.0299
 5902TIP3    H234279   2.089   4.267   7.015  0.4099 -1.2578 -2.9574
 5903TIP3   OH234280   4.554   1.577   2.067  0.2547 -0.2837  0.3870
 5903TIP3    H134281   4.461   1.555   2.065 -0.2685  1.6490 -2.1038
 5903TIP3    H234282   4.575   1.586   2.160 -3.0752  3.0263  1.0676
 5904TIP3   OH234283   3.428   1.496   7.408  0.4622 -0.2039 -0.0612
 5904TIP3    H134284   3.337   1.464   7.409  0.1006  0.7787  1.4781
 5904TIP3    H234285   3.472   1.439   7.344 -0.6346 -2.3984  1.0121
 5905TIP3   OH234286   0.425   2.047   2.831 -0.2482  0.1601 -0.3695
 5905TIP3    H134287   0.337   2.014   2.851 -0.3679  0.9814  0.5745
 5905TIP3    H234288   0.436   2.032   2.738 -0.8288 -1.2571 -0.2331
 5906TIP3   OH234289   5.574   1.366   2.088  0.7699 -0.0527 -0.0125
 5906TIP3    H134290   5.483   1.388   2.109  1.1476  1.5298  0.0458
 5906TIP3    H234291   5.584   1.393   1.996  0.4253 -2.7759 -0.9488
 5907TIP3   OH234292   4.715   2.806   0.570 -0.0014  0.1579 -0.0479
 5907TIP3    H134293   4.801   2.773   0.544 -0.0040 -0.9471  1.2407
 5907TIP3    H234294   4.656   2.777   0.501  0.2625 -1.3106  0.3004
 5908TIP3   OH234295   2.928   3.466   0.481 -0.2741 -0.7126 -0.2389
 5908TIP3    H134296   3.007   3.462   0.426  0.2846 -0.4055  0.5162
 5908TIP3    H234297   2.961   3.449   0.569 -1.2872 -2.1045 -0.1024
 5909TIP3   OH234298   4.846   0.381   7.166 -0.2466 -0.5700  0.2525
 5909TIP3    H134299   4.921   0.420   7.120  0.7512 -1.1565  1.3425
 5909TIP3    H234300   4.877   0.296   7.196 -1.7150 -1.2952 -0.2122
 5910TIP3   OH234301   5.808   0.043   7.617 -0.2037 -1.0119 -0.0969
 5910TIP3    H134302   5.773   0.054   7.705  0.2192 -0.3895  0.0006
 5910TIP3    H234303   5.732   0.027   7.562 -0.5128 -0.9061  0.3019
 5911TIP3   OH234304   1.349   5.128   8.967 -0.1093 -0.6230  0.6377
 5911TIP3    H134305   1.355   5.182   8.888 -1.6738 -1.6592 -0.2564
 5911TIP3    H234306   1.394   5.178   9.035  0.2021  0.8648 -0.6232
 5912TIP3   OH234307   2.836   4.785   1.671  0.2140  0.2205  0.5530
 5912TIP3    H134308   2.778   4.823   1.605  0.0940 -1.3365 -0.2956
 5912TIP3    H234309   2.865   4.702   1.632  0.7237 -0.3939  2.1656
 5913TIP3   OH234310   6.203   5.757   0.667 -0.1033  0.1562  0.2545
 5913TIP3    H134311   6.236   5.756   0.578 -3.5752  1.2130 -1.2156
 5913TIP3    H234312   6.203   5.850   0.692 -2.1611  0.2820 -0.0095
 5914TIP3   OH234313   1.636   2.329   7.702 -0.7425  0.2246 -0.5334
 5914TIP3    H134314   1.609   2.239   7.687 -1.3627  0.5236 -1.3193
 5914TIP3    H234315   1.716   2.323   7.754 -0.2319 -0.8064 -1.4221
 5915TIP3   OH234316   3.836   6.416   2.633 -0.3460 -0.2089 -0.4887
 5915TIP3    H134317   3.884   6.390   2.554 -0.4352 -1.6686 -0.1041
 5915TIP3    H234318   3.876   6.364   2.703 -1.6164 -0.4850  0.0676
 5916TIP3   OH234319   3.540   0.409   1.364 -0.0165  0.0812  0.2442
 5916TIP3    H134320   3.616   0.440   1.314  0.4612  0.4616  1.1690
 5916TIP3    H234321   3.558   0.316   1.380 -0.8185 -0.3941 -1.4065
 5917TIP3   OH234322   1.589   0.334   9.337  0.0409 -0.2738 -0.1262
 5917TIP3    H134323   1.507   0.327   9.287 -0.4077 -0.1643  0.5708
 5917TIP3    H234324   1.575   0.277   9.413 -0.7358  2.1861  1.7342
 5918TIP3   OH234325   2.367   5.736   3.193  0.1206  0.0719 -0.5477
 5918TIP3    H134326   2.414   5.773   3.118  0.3762 -2.8831 -1.9761
 5918TIP3    H234327   2.402   5.648   3.203 -3.8723 -1.7811 -0.6643
 5919TIP3   OH234328   5.367   3.560   2.743  0.0056 -0.4157 -0.5328
 5919TIP3    H134329   5.420   3.639   2.747  1.2092 -1.2518  0.8660
 5919TIP3    H234330   5.416   3.495   2.793 -2.3084 -1.2368  0.8338
 5920TIP3   OH234331   6.377   2.442   8.753 -0.6410  0.1311 -0.0170
 5920TIP3    H134332   6.369   2.351   8.779 -1.1790 -0.0276 -0.7192
 5920TIP3    H234333   6.334   2.447   8.668  0.1235  0.8615 -0.3761
 5921TIP3   OH234334   4.521   5.646   2.386 -0.2966  0.0981  0.3279
 5921TIP3    H134335   4.484   5.593   2.315  0.9929  1.0604 -1.1160
 5921TIP3    H234336   4.559   5.583   2.447  0.0056 -0.6934 -0.6638
 5922TIP3   OH234337   3.304   5.222   1.694  0.2333 -0.3644  0.0599
 5922TIP3    H134338   3.396   5.233   1.717  0.3597 -1.0224 -0.1008
 5922TIP3    H234339   3.304   5.158   1.623 -0.3066  0.0686 -0.3451
 5923TIP3   OH234340   4.315   2.969   8.871  0.1264 -0.2693  0.0921
 5923TIP3    H134341   4.229   2.959   8.913  0.6193 -0.4166  1.0823
 5923TIP3    H234342   4.370   2.903   8.912  0.7420 -0.1315 -0.4915
 5924TIP3   OH234343   6.300   6.153   7.077 -0.0529  0.6964 -0.1281
 5924TIP3    H134344   6.363   6.115   7.016  0.4893  0.8480  0.3204
 5924TIP3    H234345   6.296   6.246   7.054 -1.0675  0.4571 -0.9601
 5925TIP3   OH234346   4.839   2.891   9.358  0.4506  0.1433  0.0931
 5925TIP3    H134347   4.895   2.861   9.287  0.9112  1.7718 -0.2715
 5925TIP3    H234348   4.857   2.985   9.365 -1.8228  0.6200  0.3273
 5926TIP3   OH234349   2.642   1.498   8.221 -0.0712 -0.7562 -0.0116
 5926TIP3    H134350   2.641   1.462   8.309  1.7102  1.5487  1.0250
 5926TIP3    H234351   2.682   1.429   8.167  1.3241 -1.1670  1.4896
 5927TIP3   OH234352   0.567   6.353   1.235 -0.7632  0.5775 -0.0378
 5927TIP3    H134353   0.478   6.320   1.247 -0.3243 -1.4319 -1.6714
 5927TIP3    H234354   0.565   6.398   1.150  0.2546 -1.5601 -1.2620
 5928TIP3   OH234355   0.600   2.781   7.964 -0.2045  0.4662  0.3956
 5928TIP3    H134356   0.538   2.784   7.891 -1.3784 -0.9254  1.2729
 5928TIP3    H234357   0.552   2.822   8.036 -0.1210 -0.6124  1.0813
 5929TIP3   OH234358   3.572   0.174   7.112 -0.2828 -0.1142 -0.4932
 5929TIP3    H134359   3.553   0.101   7.053  0.2370  0.6305 -1.6352
 5929TIP3    H234360   3.496   0.181   7.169  0.2060 -2.3508  0.5150
 5930TIP3   OH234361   1.131   2.270   6.875 -0.1867  0.6629 -0.2232
 5930TIP3    H134362   1.156   2.356   6.910  0.0715  0.5708 -0.1779
 5930TIP3    H234363   1.120   2.285   6.781 -0.3405  0.7898 -0.1860
 5931TIP3   OH234364   4.960   5.859   0.561  0.0883  0.3716 -0.0041
 5931TIP3    H134365   4.971   5.852   0.655  1.7836 -1.4648 -0.2618
 5931TIP3    H234366   4.869   5.885   0.549  0.0052  1.2195  2.1304
 5932TIP3   OH234367   0.905   2.981   1.114 -0.1958 -0.6721  1.1455
 5932TIP3    H134368   0.868   3.068   1.097  2.0423  0.1252 -0.0480
 5932TIP3    H234369   0.887   2.932   1.034  0.5054 -0.5575  0.9103
 5933TIP3   OH234370   5.650   5.402   9.125 -0.3250 -0.1073  0.1432
 5933TIP3    H134371   5.691   5.453   9.196 -0.9702 -0.2016  0.5883
 5933TIP3    H234372   5.583   5.460   9.090 -0.8999 -0.5570  0.4938
 5934TIP3   OH234373   3.691   3.131   8.541 -0.2809 -0.5279 -0.3601
 5934TIP3    H134374   3.617   3.190   8.554 -0.9954 -0.9050 -2.4652
 5934TIP3    H234375   3.767   3.189   8.537 -0.8291  0.1515 -1.1580
 5935TIP3   OH234376   5.291   4.775   0.961  0.8641 -0.2102  1.0290
 5935TIP3    H134377   5.245   4.776   1.044  0.7537  1.7935  0.9800
 5935TIP3    H234378   5.381   4.800   0.982  0.4510  1.9625  0.3779
 5936TIP3   OH234379   3.273   1.889   0.558 -0.1809  0.2259 -0.5697
 5936TIP3    H134380   3.344   1.870   0.497 -0.3038 -2.3301 -0.0095
 5936TIP3    H234381   3.259   1.807   0.605 -1.5012  1.5213  1.4400
 5937TIP3   OH234382   0.256   5.525   6.655  0.3291 -0.2392 -0.8693
 5937TIP3    H134383   0.239   5.431   6.658  4.3122 -1.1199  0.7852
 5937TIP3    H234384   0.238   5.550   6.565 -0.6215 -2.6112 -1.4170
 5938TIP3   OH234385   0.314   5.279   7.145 -0.1514  0.0697  0.1847
 5938TIP3    H134386   0.262   5.280   7.226 -0.9914  0.3632 -0.3426
 5938TIP3    H234387   0.309   5.369   7.112  1.9506  0.4825  0.8819
 5939TIP3   OH234388   5.500   0.438   8.323 -0.2955 -0.2243  0.0055
 5939TIP3    H134389   5.560   0.499   8.366 -1.1367 -0.9295  2.3287
 5939TIP3    H234390   5.413   0.468   8.351 -0.8664 -0.9490 -0.9563
 5940TIP3   OH234391   1.023   4.660   0.281  0.7571 -0.3276  0.1360
 5940TIP3    H134392   1.101   4.712   0.263  0.8012 -0.7518 -0.9697
 5940TIP3    H234393   1.011   4.607   0.202 -0.1240 -0.9297  0.6587
 5941TIP3   OH234394   2.835   4.106   8.193  0.5455  1.0689 -0.0661
 5941TIP3    H134395   2.740   4.116   8.195  0.5996  1.6709 -0.3681
 5941TIP3    H234396   2.867   4.163   8.263  0.6768  0.7410  0.1430
 5942TIP3   OH234397   5.095   3.082   1.614 -0.2451 -0.2518  0.2759
 5942TIP3    H134398   5.028   3.087   1.545  1.1539  1.7168 -1.0519
 5942TIP3    H234399   5.176   3.063   1.567  0.6224  0.3846  1.4825
 5943TIP3   OH234400   2.709   5.919   0.077 -0.2292  0.0855 -0.1548
 5943TIP3    H134401   2.724   6.011   0.097 -0.7164  0.5660 -1.8095
 5943TIP3    H234402   2.781   5.896   0.017 -0.2105 -0.5629  0.1091
 5944TIP3   OH234403   1.013   4.283   1.747 -0.8639 -0.3027 -0.2477
 5944TIP3    H134404   1.015   4.273   1.842 -1.0204 -1.9562 -0.3922
 5944TIP3    H234405   0.984   4.198   1.714 -0.1212  0.0109 -1.8150
 5945TIP3   OH234406   0.164   3.374   1.499 -0.1429 -0.3309 -0.0785
 5945TIP3    H134407   0.147   3.429   1.423 -1.7872  0.7239  1.0036
 5945TIP3    H234408   0.157   3.433   1.574  1.1612 -1.4022  0.9425
 5946TIP3   OH234409   1.267   5.368   7.928 -0.1855 -0.3851 -0.5054
 5946TIP3    H134410   1.275   5.338   8.019  2.3091 -3.7856 -1.6192
 5946TIP3    H234411   1.175   5.393   7.919 -0.3795  0.7539  3.0622
 5947TIP3   OH234412   4.136   6.138   7.560 -0.6572 -0.1950  0.2284
 5947TIP3    H134413   4.147   6.198   7.634  3.0581  0.3897 -0.5999
 5947TIP3    H234414   4.056   6.169   7.517 -3.1420 -0.7111  3.9386
 5948TIP3   OH234415   2.256   4.547   8.910 -0.0106 -0.2499 -0.0434
 5948TIP3    H134416   2.167   4.540   8.945 -0.1393 -1.4185 -0.5510
 5948TIP3    H234417   2.252   4.502   8.826  1.8729 -3.7761  1.5384
 5949TIP3   OH234418   4.942   3.118   0.448  0.3219  0.3122 -0.2719
 5949TIP3    H134419   4.849   3.131   0.465  0.5920  1.6173  0.3877
 5949TIP3    H234420   4.958   3.164   0.365  0.6134  1.2220  0.2762
 5950TIP3   OH234421   3.801   0.179   8.618  0.4134  0.3625  0.0981
 5950TIP3    H134422   3.828   0.227   8.695  1.2970 -0.5291  0.3668
 5950TIP3    H234423   3.880   0.173   8.563  0.4450 -1.0474  0.2408
 5951TIP3   OH234424   3.394   2.724   0.861 -0.2416 -0.4175 -0.0588
 5951TIP3    H134425   3.342   2.647   0.839 -1.4035  0.3356 -0.0530
 5951TIP3    H234426   3.329   2.788   0.892  0.7956  0.2511  0.7869
 5952TIP3   OH234427   4.306   2.472   1.709 -0.1899 -0.2766 -0.2644
 5952TIP3    H134428   4.260   2.445   1.789  0.8859 -3.1499 -0.4894
 5952TIP3    H234429   4.392   2.501   1.740 -0.7097  1.3210 -0.2026
 5953TIP3   OH234430   4.679   5.003   8.075  0.2902 -0.3587  0.2493
 5953TIP3    H134431   4.694   5.097   8.074 -0.3571 -0.2512  0.2120
 5953TIP3    H234432   4.609   4.991   8.140  0.0997 -0.7694 -0.0291
 5954TIP3   OH234433   5.080   3.344   6.502  0.0744  0.1889 -0.2107
 5954TIP3    H134434   5.034   3.396   6.436 -0.8549 -1.6464 -1.0843
 5954TIP3    H234435   5.163   3.322   6.462  0.2376  0.5237 -0.0600
 5955TIP3   OH234436   2.705   5.728   6.675 -0.2255 -0.1412 -0.4454
 5955TIP3    H134437   2.628   5.722   6.618 -1.2371  0.6688  0.7717
 5955TIP3    H234438   2.695   5.655   6.735 -0.8429  0.7810  0.6109
 5956TIP3   OH234439   0.606   3.301   2.148  0.2237 -0.1854 -0.2212
 5956TIP3    H134440   0.511   3.308   2.148  0.1530 -1.0253 -0.3138
 5956TIP3    H234441   0.623   3.207   2.155  1.0309 -0.2733 -2.5783
 5957TIP3   OH234442   3.298   6.136   1.833  0.1086  0.3330  0.0560
 5957TIP3    H134443   3.223   6.115   1.889 -0.7914 -1.2061 -1.6364
 5957TIP3    H234444   3.287   6.228   1.811 -1.1715  0.1857  0.0113
 5958TIP3   OH234445   0.471   5.925   7.913  0.1265  0.5004  0.1178
 5958TIP3    H134446   0.484   5.996   7.850 -0.2245  0.5269  0.0723
 5958TIP3    H234447   0.433   5.967   7.989 -0.5759  0.2799 -0.1070
 5959TIP3   OH234448   3.065   1.283   6.676 -0.0576  0.4845 -0.0240
 5959TIP3    H134449   2.999   1.271   6.744 -1.2747  0.0044 -1.2436
 5959TIP3    H234450   3.042   1.365   6.633 -0.2722  0.0092 -0.8577
 5960TIP3   OH234451   1.747   0.398   7.216  0.6082 -0.3320 -0.1049
 5960TIP3    H134452   1.672   0.374   7.272 -0.2322 -0.8251 -1.4043
 5960TIP3    H234453   1.779   0.314   7.183 -0.5743  0.0401 -2.4321
 5961TIP3   OH234454   4.238   6.165   3.103 -0.9146 -0.0814  1.0721
 5961TIP3    H134455   4.318   6.160   3.050 -2.2837  2.6883 -1.4956
 5961TIP3    H234456   4.268   6.196   3.188  0.7434  1.4399  0.0035
 5962TIP3   OH234457   5.935   3.810   7.167  0.1996  0.7818  0.1629
 5962TIP3    H134458   5.910   3.813   7.075  0.1721  1.6585  0.1907
 5962TIP3    H234459   6.031   3.809   7.165  0.2123  1.5919  0.1334
 5963TIP3   OH234460   5.152   6.054   2.188  0.5850  0.1539 -0.3424
 5963TIP3    H134461   5.158   5.998   2.111  0.1967 -2.0084  1.0860
 5963TIP3    H234462   5.243   6.072   2.212  0.8215 -1.8666  0.4716
 5964TIP3   OH234463   2.513   2.234   0.383  0.1914 -0.7722 -0.1158
 5964TIP3    H134464   2.468   2.284   0.451  0.1372 -1.9268  0.7304
 5964TIP3    H234465   2.452   2.164   0.360  0.8356 -1.3121 -0.2151
 5965TIP3   OH234466   0.486   4.783   1.916 -0.1717 -0.0247 -0.2822
 5965TIP3    H134467   0.467   4.847   1.848  0.0598 -0.6558 -0.9476
 5965TIP3    H234468   0.448   4.821   1.996  0.2778  1.1166 -0.5797
 5966TIP3   OH234469   2.326   0.302   3.403 -0.4783 -0.5037 -0.3568
 5966TIP3    H134470   2.273   0.226   3.430 -0.6465  0.4568  2.2877
 5966TIP3    H234471   2.405   0.296   3.456  0.2269  0.3180 -1.2936
 5967TIP3   OH234472   4.184   5.469   8.672 -0.7378  0.3743  0.4208
 5967TIP3    H134473   4.242   5.545   8.679  1.2671 -1.0342  0.3015
 5967TIP3    H234474   4.114   5.485   8.735  0.3249  1.7377  1.3032
 5968TIP3   OH234475   1.881   5.830   7.942 -0.2741 -0.0401 -0.0986
 5968TIP3    H134476   1.960   5.875   7.970 -0.2606 -0.4040  0.4588
 5968TIP3    H234477   1.868   5.858   7.851 -0.1698  0.9400  0.1766
 5969TIP3   OH234478   3.145   1.530   1.211 -0.2297 -0.4552  0.1872
 5969TIP3    H134479   3.093   1.607   1.234 -0.0788 -0.4517  0.5290
 5969TIP3    H234480   3.100   1.491   1.137 -0.4776 -0.2089  0.2084
 5970TIP3   OH234481   3.506   3.658   8.977 -0.4163  0.2611  0.0837
 5970TIP3    H134482   3.520   3.646   9.071  1.5189 -0.3679 -0.2523
 5970TIP3    H234483   3.461   3.578   8.949 -0.6253  0.2692  0.3880
 5971TIP3   OH234484   3.057   1.213   3.041 -0.1788  0.3780  0.2540
 5971TIP3    H134485   2.998   1.287   3.026  0.1049  0.5016 -0.2414
 5971TIP3    H234486   3.017   1.165   3.114 -1.5712 -0.2459 -0.8746
 5972TIP3   OH234487   2.130   6.147   6.199  0.4284 -0.0425  0.6104
 5972TIP3    H134488   2.106   6.158   6.107 -3.0379  0.9835  1.5255
 5972TIP3    H234489   2.122   6.053   6.214 -3.0547  0.1530  0.7223
 5973TIP3   OH234490   5.275   4.545  -0.000 -0.4411 -0.4162  0.3687
 5973TIP3    H134491   5.253   4.558   0.092 -0.4141 -0.6823  0.4147
 5973TIP3    H234492   5.195   4.567  -0.047 -0.2483  0.3706  0.4083
 5974TIP3   OH234493   2.111   2.068   1.508 -0.3631 -0.5631  0.9731
 5974TIP3    H134494   2.151   2.139   1.559  1.4473  0.8080 -2.1259
 5974TIP3    H234495   2.026   2.103   1.481 -0.1146 -0.1893  0.6843
 5975TIP3   OH234496   4.298   0.553   2.615  0.0515  0.3460 -0.1736
 5975TIP3    H134497   4.261   0.549   2.703  1.0547  0.8671  0.2959
 5975TIP3    H234498   4.258   0.480   2.569 -0.8174  0.3213  0.5823
 5976TIP3   OH234499   5.553   1.671   7.611  0.0543  0.1186 -0.4259
 5976TIP3    H134500   5.615   1.598   7.615  2.6930  2.2135 -0.3499
 5976TIP3    H234501   5.482   1.645   7.669  1.2937 -2.0384  0.2447
 5977TIP3   OH234502   0.619   2.673   1.590  0.1993 -0.1297 -0.3329
 5977TIP3    H134503   0.691   2.732   1.609  0.5684 -0.3879 -0.9128
 5977TIP3    H234504   0.605   2.625   1.672  0.5353  0.0813 -0.1505
 5978TIP3   OH234505   1.333   3.403   9.150  0.5002  0.2535  0.2572
 5978TIP3    H134506   1.418   3.440   9.126  0.3088  0.3389 -0.3111
 5978TIP3    H234507   1.292   3.380   9.066  0.3773 -0.7278  0.5748
 5979TIP3   OH234508   0.752   0.954   9.078  0.1781 -0.2092  0.2665
 5979TIP3    H134509   0.799   1.030   9.114 -0.6378  0.3520  0.1794
 5979TIP3    H234510   0.662   0.965   9.109 -0.0431 -0.9129 -0.1119
 5980TIP3   OH234511   4.963   5.968   8.361  0.1697  0.3530 -0.3754
 5980TIP3    H134512   5.051   5.980   8.328  0.8261  0.0667  1.1685
 5980TIP3    H234513   4.910   6.030   8.312  1.3487  0.9937 -0.8713
 5981TIP3   OH234514   5.003   3.730   8.202  0.1392 -0.5636 -0.5197
 5981TIP3    H134515   4.970   3.683   8.278 -1.4162 -0.3902 -1.0503
 5981TIP3    H234516   5.003   3.664   8.132  0.2671 -0.3859 -0.6867
 5982TIP3   OH234517   4.372   4.558   2.481 -0.3300  0.1971 -0.1877
 5982TIP3    H134518   4.458   4.536   2.518 -1.1902  0.5929  2.2591
 5982TIP3    H234519   4.392   4.610   2.404  1.6402  0.4512  0.4201
 5983TIP3   OH234520   4.104   3.697   1.349  0.0163 -0.1628  0.1305
 5983TIP3    H134521   4.045   3.684   1.275 -1.4458  2.2360  0.7561
 5983TIP3    H234522   4.094   3.618   1.402 -0.5551 -0.9750 -1.1462
 5984TIP3   OH234523   5.230   0.681   1.384 -0.9864  0.1419  0.0064
 5984TIP3    H134524   5.235   0.612   1.450 -0.0973  0.8710  0.7195
 5984TIP3    H234525   5.231   0.763   1.434 -2.6961  0.6884 -0.7834
 5985TIP3   OH234526   3.116   4.005   6.578 -0.3940  0.1382 -0.6982
 5985TIP3    H134527   3.038   4.060   6.576  0.4598  1.3791 -2.6730
 5985TIP3    H234528   3.174   4.047   6.641 -0.4602  0.4581 -0.8518
 5986TIP3   OH234529   0.272   4.599   0.655 -0.1482  0.3474 -0.9293
 5986TIP3    H134530   0.296   4.525   0.712  0.8860 -0.2950 -2.1610
 5986TIP3    H234531   0.179   4.584   0.636 -0.3151  0.1598 -0.0298
 5987TIP3   OH234532   0.277   5.635   8.662 -0.1880 -0.3396  0.1312
 5987TIP3    H134533   0.365   5.636   8.625 -0.2089 -1.4321  0.0177
 5987TIP3    H234534   0.225   5.687   8.600  0.5279  1.0610  0.6638
 5988TIP3   OH234535   3.518   2.500   1.090 -0.2546 -0.0067  0.7745
 5988TIP3    H134536   3.512   2.587   1.051  0.5471  0.0297  0.7183
 5988TIP3    H234537   3.511   2.440   1.016  0.0584  0.0303  0.7157
 5989TIP3   OH234538   4.705   2.477   7.513 -0.3654 -0.7227 -0.0339
 5989TIP3    H134539   4.707   2.384   7.489  1.3022 -0.2822 -1.8858
 5989TIP3    H234540   4.797   2.504   7.512 -0.9017  1.2441 -0.7859
 5990TIP3   OH234541   2.675   0.541   3.753  0.2987 -0.0163  0.1438
 5990TIP3    H134542   2.642   0.456   3.723  0.9223  0.1824 -1.1913
 5990TIP3    H234543   2.769   0.535   3.741  0.2219  1.4082 -1.5223
 5991TIP3   OH234544   1.931   2.427   7.472  0.5470 -0.1771  0.1169
 5991TIP3    H134545   1.933   2.364   7.544  2.5564  0.8780  1.0907
 5991TIP3    H234546   1.936   2.373   7.393  0.0409 -1.2956  0.8233
 5992TIP3   OH234547   2.169   4.107   0.464 -0.3299  0.3609  0.2811
 5992TIP3    H134548   2.159   4.058   0.383  1.3064 -1.7959  1.2620
 5992TIP3    H234549   2.092   4.084   0.516 -1.0994  1.3076 -0.4132
 5993TIP3   OH234550   1.268   5.208   0.007  0.1382 -0.8310  0.1540
 5993TIP3    H134551   1.309   5.238  -0.074  1.5919 -0.4107  1.0112
 5993TIP3    H234552   1.283   5.280   0.069 -1.1067 -1.0725  0.7596
 5994TIP3   OH234553   2.024   3.204   1.872  0.1567 -0.0218  0.3458
 5994TIP3    H134554   2.113   3.228   1.846  0.4195 -1.4777 -0.2030
 5994TIP3    H234555   1.968   3.241   1.804 -0.2336  4.7960  2.8996
 5995TIP3   OH234556   4.379   4.826   7.953  0.5949 -0.2989  0.3975
 5995TIP3    H134557   4.443   4.783   7.896  1.4038  1.3433  0.0250
 5995TIP3    H234558   4.367   4.913   7.915 -2.6737 -0.8414 -0.1820
 5996TIP3   OH234559   0.204   5.860   8.162 -0.0829 -0.6293  0.2928
 5996TIP3    H134560   0.223   5.953   8.177 -0.6692  0.4958 -4.3735
 5996TIP3    H234561   0.277   5.814   8.204  2.0416  2.1959 -0.0072
 5997TIP3   OH234562   4.206   6.429   8.605 -0.7142 -0.0281  0.0570
 5997TIP3    H134563   4.169   6.442   8.692  2.1166 -1.1576  1.5800
 5997TIP3    H234564   4.163   6.351   8.571 -2.1644  0.6758  0.2010
 5998TIP3   OH234565   1.167   0.312   5.941 -0.0441 -0.1294 -0.1009
 5998TIP3    H134566   1.195   0.404   5.948 -0.2874  0.0753 -1.6575
 5998TIP3    H234567   1.077   0.313   5.973  0.6341 -0.2437  1.9629
 5999TIP3   OH234568   5.418   5.537   0.311  0.2610  0.0194 -0.0636
 5999TIP3    H134569   5.398   5.472   0.244 -3.1719 -0.3341  1.1270
 5999TIP3    H234570   5.400   5.621   0.268  0.3531 -0.0560 -0.2532
 6000TIP3   OH234571   4.469   0.318   8.692 -0.1080 -0.2810  0.2652
 6000TIP3    H134572   4.552   0.279   8.717  0.1449 -0.1546 -0.3471
 6000TIP3    H234573   4.493   0.386   8.628 -0.6806 -0.2588  0.0678
 6001TIP3   OH234574   4.087   0.235   7.292  0.5884 -0.2210 -0.6732
 6001TIP3    H134575   4.111   0.327   7.301  1.1766 -0.3162 -1.1803
 6001TIP3    H234576   3.991   0.235   7.292  0.5363  0.1472  1.5904
 6002TIP3   OH234577   2.220   1.618   8.849  0.1124  0.0477  0.5154
 6002TIP3    H134578   2.247   1.568   8.926 -1.5314  0.3359  1.3238
 6002TIP3    H234579   2.271   1.581   8.777  2.0944  0.1183  1.7971
 6003TIP3   OH234580   2.002   0.665   0.595  0.5100  0.3719 -0.8813
 6003TIP3    H134581   2.082   0.699   0.555  1.5409  0.6440  1.2517
 6003TIP3    H234582   1.997   0.709   0.680  0.0447 -2.2369  0.5696
 6004TIP3   OH234583   4.782   3.193   6.484 -0.4101  0.2534  0.0758
 6004TIP3    H134584   4.758   3.269   6.432  2.1003 -0.3260 -2.1558
 6004TIP3    H234585   4.793   3.227   6.573 -1.9215  1.9077 -0.3205
 6005TIP3   OH234586   0.883   4.906   9.058  0.2928 -0.7704  0.6726
 6005TIP3    H134587   0.946   4.943   8.996  0.2850  0.0451  1.1382
 6005TIP3    H234588   0.798   4.919   9.016  0.0997  1.5499  1.6630
 6006TIP3   OH234589   5.307   1.468   7.482 -0.0357  0.0239  0.4508
 6006TIP3    H134590   5.217   1.436   7.484  0.6039 -2.0692 -0.8920
 6006TIP3    H234591   5.334   1.469   7.574 -0.7909 -1.3158  0.7123
 6007TIP3   OH234592   5.862   6.216   2.409 -0.3715 -0.3466 -0.3730
 6007TIP3    H134593   5.827   6.180   2.490 -0.9450 -0.2525 -0.5742
 6007TIP3    H234594   5.929   6.278   2.438  0.7418 -1.6656 -0.0295
 6008TIP3   OH234595   3.488   2.146   7.805  0.8016 -0.1910 -0.1515
 6008TIP3    H134596   3.561   2.195   7.769  0.3294  0.4913 -0.1897
 6008TIP3    H234597   3.451   2.099   7.730  0.6384  0.1839 -0.3082
 6009TIP3   OH234598   0.583   1.702   0.387  0.2015 -0.1287 -0.7786
 6009TIP3    H134599   0.564   1.775   0.329  0.5764  0.0231 -0.7133
 6009TIP3    H234600   0.517   1.708   0.456  0.6195  0.5310 -0.4269
 6010TIP3   OH234601   2.188   1.647   0.631  0.0221 -0.0777 -0.4575
 6010TIP3    H134602   2.266   1.615   0.587  1.3944  2.8894 -0.3732
 6010TIP3    H234603   2.182   1.593   0.710  0.0099 -2.5389 -2.0413
 6011TIP3   OH234604   5.999   3.621   0.543 -0.1497 -0.1816 -0.6985
 6011TIP3    H134605   5.936   3.692   0.531  1.4945  2.2370  2.9469
 6011TIP3    H234606   6.049   3.647   0.621  3.4178 -3.3409 -1.6495
 6012TIP3   OH234607   1.027   2.926   1.843  0.4038  0.2278 -0.4189
 6012TIP3    H134608   1.089   2.984   1.889  0.2392 -0.4113  0.6438
 6012TIP3    H234609   0.945   2.936   1.892  0.0267  0.0629 -1.0123
 6013TIP3   OH234610   3.891   1.434   0.885  0.3972  0.2146  0.4468
 6013TIP3    H134611   3.962   1.425   0.949  1.6006  1.4081 -0.6647
 6013TIP3    H234612   3.842   1.511   0.914  0.8316  0.6466  0.0281
 6014TIP3   OH234613   5.109   3.668   2.632 -0.5725 -0.0839 -0.9327
 6014TIP3    H134614   5.200   3.639   2.627 -0.5801 -0.4299  0.4992
 6014TIP3    H234615   5.081   3.676   2.541  0.2807 -1.9158 -1.3976
 6015TIP3   OH234616   3.604   5.700   7.150 -0.3305 -0.1492 -0.4827
 6015TIP3    H134617   3.631   5.627   7.206 -0.3147  0.4425  0.2979
 6015TIP3    H234618   3.613   5.666   7.061  1.5200 -0.4974 -0.2146
 6016TIP3   OH234619   2.265   2.475   2.905  0.2054  0.3249  0.2063
 6016TIP3    H134620   2.286   2.472   2.812 -0.1484 -0.6026  0.1444
 6016TIP3    H234621   2.349   2.484   2.949  0.7145 -2.2294 -0.0794
 6017TIP3   OH234622   3.681   3.473   8.211  0.4445  0.6336 -0.1505
 6017TIP3    H134623   3.772   3.445   8.216  0.5751  0.9763 -0.5098
 6017TIP3    H234624   3.639   3.407   8.156  0.5407  0.6239 -0.2136
 6018TIP3   OH234625   1.705   3.904   7.226  0.2972  0.5053 -0.1938
 6018TIP3    H134626   1.645   3.839   7.263 -0.1423  0.7014 -0.5513
 6018TIP3    H234627   1.708   3.974   7.291 -0.6493  0.9525 -0.6201
 6019TIP3   OH234628   1.538   3.138   1.267 -0.0429  0.3797 -0.0502
 6019TIP3    H134629   1.540   3.163   1.175 -1.5919 -0.7172 -0.4253
 6019TIP3    H234630   1.481   3.061   1.270 -1.1143  1.1678  2.0018
 6020TIP3   OH234631   0.952   3.213   8.471 -0.1986 -0.2657  0.0850
 6020TIP3    H134632   0.937   3.275   8.399 -0.4560  0.9245  1.1240
 6020TIP3    H234633   0.865   3.190   8.502 -0.0740 -0.0203  0.6263
 6021TIP3   OH234634   4.037   6.241   8.480 -0.2690  0.3638  0.3505
 6021TIP3    H134635   3.949   6.256   8.447 -1.1936  0.0112  2.4743
 6021TIP3    H234636   4.069   6.165   8.431 -1.8335 -0.5890  0.7567
 6022TIP3   OH234637   4.732   5.005   1.598 -0.3903 -0.4155  0.2427
 6022TIP3    H134638   4.678   5.053   1.535 -0.7640 -2.4389 -1.0757
 6022TIP3    H234639   4.718   5.050   1.681 -0.1734  2.1283 -1.0080
 6023TIP3   OH234640   0.363   1.390   7.749 -0.8082  0.1486 -0.1695
 6023TIP3    H134641   0.313   1.472   7.750 -1.9558 -0.5262 -0.3774
 6023TIP3    H234642   0.447   1.413   7.710 -1.9460  0.7671 -2.3952
 6024TIP3   OH234643   1.610   3.462   2.013 -0.0129 -0.5408 -0.1187
 6024TIP3    H134644   1.658   3.467   1.930 -0.6767 -1.8620 -0.6186
 6024TIP3    H234645   1.525   3.502   1.995  0.0951 -0.1967  0.1302
 6025TIP3   OH234646   4.784   5.111   0.688 -0.1024  0.5104  0.1455
 6025TIP3    H134647   4.795   5.016   0.686 -0.0485  0.5073  0.6469
 6025TIP3    H234648   4.804   5.136   0.778 -1.2641  0.8659  0.3138
 6026TIP3   OH234649   3.371   2.739   6.959  0.4816  0.0077  0.4678
 6026TIP3    H134650   3.395   2.742   7.052 -0.1044  1.3479  0.5990
 6026TIP3    H234651   3.455   2.733   6.913  0.7434 -1.4430  1.0801
 6027TIP3   OH234652   0.896   3.051   0.284 -0.0494  0.1716 -0.4750
 6027TIP3    H134653   0.972   3.034   0.229 -0.3977 -0.1620 -0.8598
 6027TIP3    H234654   0.926   3.117   0.347  0.8918 -0.7971  0.1175
 6028TIP3   OH234655   1.072   5.802   6.121  0.0897 -0.1657  0.2069
 6028TIP3    H134656   1.138   5.863   6.090 -0.1898 -0.3041 -0.6742
 6028TIP3    H234657   1.092   5.719   6.078 -0.3108 -0.3566  0.3758
 6029TIP3   OH234658   3.373   3.077   2.565  0.0510 -0.1731  0.0867
 6029TIP3    H134659   3.449   3.062   2.508  1.2895  1.8635  1.1078
 6029TIP3    H234660   3.401   3.046   2.651 -0.8665 -0.8022  0.1795
 6030TIP3   OH234661   5.984   4.941   3.125 -0.6508  0.8037 -0.0358
 6030TIP3    H134662   6.060   4.952   3.068 -1.0444  0.6187 -0.6023
 6030TIP3    H234663   6.022   4.920   3.211 -0.0732 -1.2533 -0.7409
 6031TIP3   OH234664   5.936   4.582   8.172 -0.1658 -0.2355  0.2093
 6031TIP3    H134665   6.029   4.573   8.192 -0.4086 -0.5236  1.2617
 6031TIP3    H234666   5.922   4.529   8.094  0.5081 -0.3459  0.1622
 6032TIP3   OH234667   1.563   2.458   8.864 -0.3278 -0.4973  0.0480
 6032TIP3    H134668   1.576   2.500   8.779 -1.3794 -0.4319 -0.1003
 6032TIP3    H234669   1.508   2.520   8.913  0.3734 -0.4778  0.8260
 6033TIP3   OH234670   4.668   3.582   1.558 -0.1636  0.3244 -0.3402
 6033TIP3    H134671   4.735   3.611   1.621  1.5747 -0.2060 -1.8533
 6033TIP3    H234672   4.686   3.632   1.479 -0.0415 -1.4854 -1.5246
 6034TIP3   OH234673   5.996   4.968   8.262 -0.2485 -0.0920  0.4700
 6034TIP3    H134674   6.068   4.907   8.274  0.3211  0.5712  0.4859
 6034TIP3    H234675   6.034   5.040   8.211 -0.5282  0.9079  1.6307
 6035TIP3   OH234676   1.318   3.493   0.586  0.8053 -0.7096 -0.4728
 6035TIP3    H134677   1.322   3.583   0.553  1.5885 -0.9391 -1.0450
 6035TIP3    H234678   1.353   3.440   0.514 -1.6028 -1.7116 -0.9948
 6036TIP3   OH234679   5.492   5.369   0.079 -0.7056  0.4353  0.0175
 6036TIP3    H134680   5.450   5.338  -0.001  1.5782 -1.2809 -0.6163
 6036TIP3    H234681   5.511   5.289   0.129 -0.0911  1.3045  1.2354
 6037TIP3   OH234682   4.857   1.542   8.164 -0.4933 -0.1036 -0.2519
 6037TIP3    H134683   4.777   1.490   8.154 -0.0295 -0.9775  0.4172
 6037TIP3    H234684   4.844   1.617   8.106 -1.2912 -0.8396 -1.0682
 6038TIP3   OH234685   2.779   6.148   2.324 -0.1087 -0.4165  0.0891
 6038TIP3    H134686   2.704   6.188   2.366 -0.5035  1.2817 -2.0278
 6038TIP3    H234687   2.853   6.167   2.382 -1.1905 -1.7703  1.9921
 6039TIP3   OH234688   4.193   6.254   0.666  0.3560  0.2481  0.4135
 6039TIP3    H134689   4.198   6.185   0.733  1.8917 -1.0878 -0.9960
 6039TIP3    H234690   4.161   6.209   0.588 -0.7109  1.6355  0.0048
 6040TIP3   OH234691   4.412   4.246   8.465  0.4598 -0.0231  0.0575
 6040TIP3    H134692   4.430   4.276   8.376 -0.9005 -0.4366 -0.3836
 6040TIP3    H234693   4.460   4.163   8.473  0.3064 -0.1572 -0.4066
 6041TIP3   OH234694   3.158   6.335   2.033 -0.2562 -0.2864 -0.0133
 6041TIP3    H134695   3.095   6.374   2.093 -0.8804 -0.0205 -0.8257
 6041TIP3    H234696   3.238   6.386   2.046 -1.4207  2.3085 -2.0332
 6042TIP3   OH234697   4.739   0.349   7.818 -0.8525  1.2751 -0.2319
 6042TIP3    H134698   4.648   0.342   7.791 -0.8491 -1.0973  0.1829
 6042TIP3    H234699   4.779   0.266   7.792  0.5265  1.1760  1.9025
 6043TIP3   OH234700   3.833   1.001   9.180 -0.2412 -0.0009 -0.0178
 6043TIP3    H134701   3.906   1.062   9.168 -0.6244  0.5709  0.4981
 6043TIP3    H234702   3.831   0.950   9.099 -0.5036  1.3145 -0.8775
 6044TIP3   OH234703   0.761   0.635   9.313  0.4048 -0.3738  0.1770
 6044TIP3    H134704   0.683   0.580   9.311  1.4310 -1.8721 -0.2548
 6044TIP3    H234705   0.758   0.685   9.231 -0.0671 -0.4378  0.1504
 6045TIP3   OH234706   5.464   2.976   7.893 -0.7167  0.4602  0.0475
 6045TIP3    H134707   5.559   2.990   7.888 -0.7509  0.2596 -2.7646
 6045TIP3    H234708   5.454   2.897   7.946  0.7222  0.1245 -0.1331
 6046TIP3   OH234709   2.347   3.448   9.009  0.7134  0.0430 -0.4481
 6046TIP3    H134710   2.403   3.413   8.941 -0.8082  1.3074 -2.4792
 6046TIP3    H234711   2.362   3.543   9.007 -3.1027  0.8074 -2.8610
 6047TIP3   OH234712   1.833   0.354   8.959  0.4025  0.3535  0.6636
 6047TIP3    H134713   1.768   0.412   8.920 -0.3234 -1.0435 -0.3114
 6047TIP3    H234714   1.888   0.411   9.012 -0.9328  1.7432  0.6116
 6048TIP3   OH234715   0.823   2.959   7.755  0.0864 -0.8272 -0.0869
 6048TIP3    H134716   0.874   2.974   7.835  1.5924 -2.7118 -0.6045
 6048TIP3    H234717   0.741   3.006   7.769  1.4801  1.3881  1.2883
 6049TIP3   OH234718   5.351   4.726   1.382 -0.0330  0.7853  0.4364
 6049TIP3    H134719   5.435   4.738   1.338  0.6837  1.3633  1.8958
 6049TIP3    H234720   5.352   4.789   1.454 -1.2795  0.0818  1.1121
 6050TIP3   OH234721   0.987   5.256   0.735  0.0652  0.4197 -0.0248
 6050TIP3    H134722   1.038   5.333   0.758 -0.9533  0.8317  0.9378
 6050TIP3    H234723   0.969   5.213   0.819  0.1020 -0.5390 -0.4881
 6051TIP3   OH234724   3.031   4.896   7.818 -0.4912  0.2351  0.5014
 6051TIP3    H134725   3.027   4.991   7.806 -0.3202  0.3091  1.0039
 6051TIP3    H234726   3.117   4.880   7.858  1.0045 -0.4897 -2.6366
 6052TIP3   OH234727   5.085   6.135   8.976  0.2380 -0.3620 -0.2329
 6052TIP3    H134728   5.086   6.180   9.061 -2.2220  1.8307 -1.2024
 6052TIP3    H234729   5.119   6.200   8.914 -0.7606 -0.8140 -1.2991
 6053TIP3   OH234730   4.301   3.015   6.892 -0.9056  0.0326  0.3258
 6053TIP3    H134731   4.208   3.022   6.868 -0.6247  0.2118 -0.7575
 6053TIP3    H234732   4.347   3.006   6.808 -0.0488 -1.2864  0.9000
 6054TIP3   OH234733   3.337   1.901   1.947  0.1204  0.3714 -0.3190
 6054TIP3    H134734   3.300   1.932   2.030 -2.5757  0.5197 -1.4488
 6054TIP3    H234735   3.422   1.943   1.941  0.0752  0.9288  2.0187
 6055TIP3   OH234736   0.139   1.800   6.864 -0.4241  0.8719 -0.1407
 6055TIP3    H134737   0.155   1.845   6.947 -0.2518 -1.7079  1.3001
 6055TIP3    H234738   0.069   1.738   6.883  0.0250 -0.1992 -1.7655
 6056TIP3   OH234739   3.072   1.284   1.761 -0.3312 -0.2978 -0.1025
 6056TIP3    H134740   3.112   1.268   1.846 -0.9723  1.8157  0.6637
 6056TIP3    H234741   2.980   1.262   1.772 -0.7813  1.6386  0.3322
 6057TIP3   OH234742   0.314   2.569   2.748 -0.0339 -0.4977 -0.3193
 6057TIP3    H134743   0.236   2.617   2.720  0.6518  1.0847  0.3780
 6057TIP3    H234744   0.284   2.513   2.819 -0.1493  1.7874  1.5310
 6058TIP3   OH234745   1.500   0.989   3.096 -0.3120 -0.3745  0.1089
 6058TIP3    H134746   1.585   0.964   3.060 -0.4038 -0.7783  0.1640
 6058TIP3    H234747   1.508   0.974   3.190 -0.3497 -0.1401  0.1486
 6059TIP3   OH234748   1.032   3.100   8.894 -0.5522  0.5299  0.8558
 6059TIP3    H134749   0.957   3.049   8.925  0.0124 -0.4246  0.7027
 6059TIP3    H234750   1.034   3.085   8.799 -1.1235  1.8756  0.6091
 6060TIP3   OH234751   2.865   1.887   1.152 -0.2798 -0.2659 -0.2108
 6060TIP3    H134752   2.796   1.822   1.167 -0.4871  0.1173  0.5080
 6060TIP3    H234753   2.941   1.852   1.199 -0.5482  0.2788  0.6350
 6061TIP3   OH234754   5.166   2.569   8.373  0.0546  0.0744  0.9579
 6061TIP3    H134755   5.073   2.587   8.387  0.2551  0.9930  1.1484
 6061TIP3    H234756   5.211   2.648   8.402  0.9105 -0.4029  0.9738
 6062TIP3   OH234757   1.615   0.764   2.532  0.1238  0.1062  0.0457
 6062TIP3    H134758   1.578   0.850   2.551  0.6140  0.1331  0.9288
 6062TIP3    H234759   1.706   0.770   2.563 -0.6176 -1.6354  2.8432
 6063TIP3   OH234760   0.397   5.122   0.050 -0.4799 -0.3667 -0.3755
 6063TIP3    H134761   0.409   5.041   0.099 -0.6258  0.2149  0.6591
 6063TIP3    H234762   0.486   5.148   0.025 -0.4232 -0.7754 -0.6111
 6064TIP3   OH234763   3.559   2.328   7.098  0.2841 -0.2326 -0.0645
 6064TIP3    H134764   3.479   2.360   7.141  1.4647  3.4984 -0.3136
 6064TIP3    H234765   3.595   2.265   7.161 -1.2254  0.3870  1.5255
 6065TIP3   OH234766   4.864   3.451   0.876 -0.0978  0.0477 -0.4426
 6065TIP3    H134767   4.834   3.400   0.802  1.6703 -0.7244 -0.6747
 6065TIP3    H234768   4.893   3.534   0.838  1.1958 -0.5028 -0.7164
 6066TIP3   OH234769   6.197   6.024   6.568 -0.4323 -0.4882 -0.2721
 6066TIP3    H134770   6.180   6.056   6.480 -0.0253 -0.2256 -0.2551
 6066TIP3    H234771   6.238   6.097   6.613 -1.2266 -0.3996  0.3363
 6067TIP3   OH234772   3.888   3.955   1.547  0.3045  0.3659  0.4843
 6067TIP3    H134773   3.873   3.985   1.637  0.2563 -0.0281  0.6107
 6067TIP3    H234774   3.983   3.954   1.538  0.3007  0.8567  0.3746
 6068TIP3   OH234775   1.827   0.692   2.170 -0.1385  0.3240  0.1165
 6068TIP3    H134776   1.918   0.686   2.201 -0.1761 -1.3514 -0.0392
 6068TIP3    H234777   1.833   0.739   2.087  0.6215 -0.0291 -0.0341
 6069TIP3   OH234778   5.048   0.153   2.364 -0.3037  0.1442 -0.0169
 6069TIP3    H134779   5.001   0.207   2.428 -1.5516 -0.2044 -0.6136
 6069TIP3    H234780   5.130   0.201   2.348 -0.5845  0.9309  0.7977
 6070TIP3   OH234781   2.283   3.432   7.342  0.3508 -0.2041 -0.6084
 6070TIP3    H134782   2.287   3.527   7.354 -1.3300 -0.1493 -0.1474
 6070TIP3    H234783   2.278   3.397   7.431  2.0499 -0.8366 -0.7187
 6071TIP3   OH234784   3.199   5.988   9.179 -0.2475  0.2187  0.2698
 6071TIP3    H134785   3.185   6.079   9.152 -0.5173 -0.4462 -2.1183
 6071TIP3    H234786   3.283   5.989   9.224  0.1436  1.5314 -0.4393
 6072TIP3   OH234787   4.122   6.290   7.815  0.0672  0.1518 -0.1402
 6072TIP3    H134788   4.069   6.348   7.870  0.9766  0.1263  0.8137
 6072TIP3    H234789   4.202   6.341   7.798 -0.9583  0.9411 -3.1276
 6073TIP3   OH234790   0.863   1.193   8.789  0.4407 -0.1927  0.9072
 6073TIP3    H134791   0.882   1.159   8.876  1.1913 -1.0415  0.4309
 6073TIP3    H234792   0.907   1.133   8.729 -0.1121  0.3365 -0.0680
 6074TIP3   OH234793   4.556   2.526   8.052 -0.4703 -0.0207  0.1121
 6074TIP3    H134794   4.584   2.508   8.142 -1.0592 -1.8180 -0.0295
 6074TIP3    H234795   4.634   2.561   8.009 -0.0191  0.3047  1.1483
 6075TIP3   OH234796   5.767   1.762   1.642 -0.9564 -0.1576 -0.4514
 6075TIP3    H134797   5.723   1.686   1.679 -0.2056 -1.0086 -1.2662
 6075TIP3    H234798   5.806   1.730   1.561  0.9960  0.6071  0.1435
 6076TIP3   OH234799   0.902   3.403   0.632 -0.4218  0.2984  0.1226
 6076TIP3    H134800   0.931   3.333   0.573 -2.5838  0.3133 -1.0581
 6076TIP3    H234801   0.811   3.381   0.652 -0.7013  2.0052  0.8929
 6077TIP3   OH234802   4.933   3.472   6.291 -0.1254 -0.2310 -0.3941
 6077TIP3    H134803   4.932   3.383   6.255 -1.0508 -0.6926  0.7309
 6077TIP3    H234804   4.844   3.488   6.320 -0.0679  1.2332 -0.9200
 6078TIP3   OH234805   2.824   4.241   2.576  0.6052 -0.6065 -0.0731
 6078TIP3    H134806   2.819   4.154   2.616 -0.3411 -1.2144 -1.4416
 6078TIP3    H234807   2.882   4.291   2.634  2.4938 -2.6079 -0.1320
 6079TIP3   OH234808   5.070   1.392   8.238 -0.1874 -0.0644 -0.8865
 6079TIP3    H134809   5.080   1.336   8.315  0.8691 -1.6220 -2.0860
 6079TIP3    H234810   4.976   1.405   8.230 -0.2650  1.3999  1.4835
 6080TIP3   OH234811   2.880   3.826   9.267 -0.2808 -0.4622  0.1744
 6080TIP3    H134812   2.909   3.735   9.263 -0.3071 -0.4911  0.6632
 6080TIP3    H234813   2.934   3.870   9.200  1.0184 -0.4906  1.1584
 6081TIP3   OH234814   0.624   6.083   0.919 -0.1341  0.1483  0.4306
 6081TIP3    H134815   0.597   6.005   0.870 -0.7004  1.1247 -0.8919
 6081TIP3    H234816   0.720   6.082   0.915 -0.1665  0.3725 -1.0382
 6082TIP3   OH234817   1.153   5.189   8.716  0.8147 -0.0944  0.5689
 6082TIP3    H134818   1.139   5.251   8.787 -2.7861  1.7025 -1.4483
 6082TIP3    H234819   1.111   5.109   8.745 -1.5212  0.9270  0.1959
 6083TIP3   OH234820   4.296   1.241   7.924  0.2126 -0.5525 -0.7112
 6083TIP3    H134821   4.221   1.208   7.973 -0.0485  2.0476  0.8401
 6083TIP3    H234822   4.323   1.168   7.869 -3.0048 -1.8231 -0.8272
 6084TIP3   OH234823   3.364   0.146   6.677  0.6343 -0.2431 -0.2177
 6084TIP3    H134824   3.274   0.177   6.667  0.7085  0.0866  0.1407
 6084TIP3    H234825   3.418   0.220   6.649  0.7898 -0.9008 -1.7583
 6085TIP3   OH234826   1.915   2.091   2.221 -0.0098  0.2308  0.2219
 6085TIP3    H134827   1.890   2.052   2.137 -0.5999 -0.0086  0.4996
 6085TIP3    H234828   1.961   2.021   2.268  0.3118  0.3615  0.1038
 6086TIP3   OH234829   2.033   1.936   2.940  0.3084  0.0771  0.4169
 6086TIP3    H134830   2.001   1.860   2.891 -0.6745  0.7663 -0.0655
 6086TIP3    H234831   2.009   2.011   2.885  1.7308  0.7162  0.6300
 6087TIP3   OH234832   3.280   4.541   9.337 -0.2595  0.2773 -0.6155
 6087TIP3    H134833   3.208   4.534   9.399  0.9193 -2.5035  0.6140
 6087TIP3    H234834   3.254   4.485   9.264 -0.2836  1.0456 -1.2106
 6088TIP3   OH234835   4.429   1.191   0.555  0.2420 -0.2942 -0.2482
 6088TIP3    H134836   4.404   1.223   0.468 -0.3081 -1.3522 -0.4891
 6088TIP3    H234837   4.360   1.130   0.579 -0.2180  0.8027  1.4344
 6089TIP3   OH234838   5.329   0.517   8.613 -0.2104 -0.6905  0.0624
 6089TIP3    H134839   5.312   0.550   8.525 -2.4479 -2.8439 -0.4444
 6089TIP3    H234840   5.278   0.574   8.671  0.1734 -0.0981 -0.1808
 6090TIP3   OH234841   6.308   5.933   2.192 -0.4835 -0.0974 -0.2533
 6090TIP3    H134842   6.370   5.938   2.119 -1.0833 -2.5018 -1.0282
 6090TIP3    H234843   6.232   5.983   2.163 -0.7883 -1.1739 -1.3976
 6091TIP3   OH234844   2.211   0.805   0.481 -0.3155 -0.6717 -0.1447
 6091TIP3    H134845   2.205   0.814   0.386  0.0070  0.7967 -0.0447
 6091TIP3    H234846   2.234   0.892   0.512 -0.4187 -1.1314  1.2905
 6092TIP3   OH234847   0.383   3.209   8.939  0.5807  0.2704  0.4458
 6092TIP3    H134848   0.454   3.147   8.956  0.3494  0.0283  0.5337
 6092TIP3    H234849   0.339   3.174   8.861 -0.5175 -0.5497  1.3988
 6093TIP3   OH234850   1.048   5.185   1.529 -0.6875  0.0536 -0.5185
 6093TIP3    H134851   1.029   5.091   1.538 -0.2677 -0.0116 -0.2527
 6093TIP3    H234852   0.964   5.225   1.506 -1.1623 -0.1974  0.7260
 6094TIP3   OH234853   5.373   4.081   3.388  0.4945  0.0898 -0.0269
 6094TIP3    H134854   5.281   4.062   3.408  1.0874 -2.0830  0.8955
 6094TIP3    H234855   5.386   4.170   3.421 -1.2021  0.3591  0.0316
 6095TIP3   OH234856   3.411   2.958   0.057  0.0635 -0.2127 -0.0498
 6095TIP3    H134857   3.506   2.957   0.056  0.1871 -2.0768 -3.5136
 6095TIP3    H234858   3.387   2.876   0.100  0.3467 -2.1861 -3.2834
 6096TIP3   OH234859   2.151   1.839   8.664  0.0044  0.2128 -0.3782
 6096TIP3    H134860   2.079   1.776   8.657 -0.4878  0.5907  1.0249
 6096TIP3    H234861   2.220   1.792   8.710 -0.3594  0.6710  0.6605
 6097TIP3   OH234862   3.052   2.041   8.305 -0.2517  0.2975  0.3200
 6097TIP3    H134863   3.144   2.051   8.329 -0.9167  0.2210  3.1790
 6097TIP3    H234864   3.034   1.948   8.315 -0.2464 -0.0552 -2.1679
 6098TIP3   OH234865   6.203   3.972   7.930  0.6524  0.0113  0.4019
 6098TIP3    H134866   6.175   4.040   7.992  0.3628  1.3579 -1.1456
 6098TIP3    H234867   6.151   3.895   7.953 -2.0382  1.5071 -0.3242
 6099TIP3   OH234868   1.126   1.093   0.449 -0.2222  0.1871  0.3752
 6099TIP3    H134869   1.222   1.089   0.448 -0.1848  0.7263  1.0564
 6099TIP3    H234870   1.106   1.159   0.515 -1.0887 -0.5592  0.8743
 6100TIP3   OH234871   5.752   3.491   1.207 -0.0849  0.1311  0.3838
 6100TIP3    H134872   5.681   3.547   1.237 -2.5562 -1.1829 -2.5757
 6100TIP3    H234873   5.799   3.545   1.143 -0.0514  0.0765  0.3631
 6101TIP3   OH234874   2.315   2.347   7.151 -0.1316  0.4402 -0.2977
 6101TIP3    H134875   2.271   2.372   7.232  0.9784 -0.6812  0.6695
 6101TIP3    H234876   2.244   2.324   7.092 -0.9329  0.8029  0.4971
 6102TIP3   OH234877   4.151   2.529   2.164 -0.3859 -0.5378 -0.2162
 6102TIP3    H134878   4.068   2.557   2.124  0.6715  1.1863 -1.3466
 6102TIP3    H234879   4.153   2.573   2.249 -0.1983  0.2737 -0.6245
 6103TIP3   OH234880   1.052   5.710   7.009  0.2419  0.1917  0.6784
 6103TIP3    H134881   0.996   5.672   6.942  0.2369 -2.1010  1.8916
 6103TIP3    H234882   1.113   5.766   6.960 -1.1755  0.3799 -0.9593
 6104TIP3   OH234883   4.390   0.657   8.167  0.5691  0.3061 -0.2315
 6104TIP3    H134884   4.334   0.619   8.100  0.6789  1.9334 -1.2900
 6104TIP3    H234885   4.478   0.628   8.144  0.4742 -0.0648 -0.1279
 6105TIP3   OH234886   0.399   2.905   7.015 -0.9123 -0.4123  0.1943
 6105TIP3    H134887   0.443   2.925   6.933  0.7246 -0.6451  0.9782
 6105TIP3    H234888   0.307   2.893   6.991 -0.5824  0.1966 -1.4798
 6106TIP3   OH234889   5.571   1.011   6.818 -0.1800  0.3394  0.4171
 6106TIP3    H134890   5.481   0.987   6.840  0.2827 -0.4907  1.4426
 6106TIP3    H234891   5.575   1.105   6.837 -0.7461  0.3257  0.6356
 6107TIP3   OH234892   5.096   5.118   8.663 -0.4881 -0.2572  0.1760
 6107TIP3    H134893   5.101   5.089   8.754 -0.1355  0.4672  0.3886
 6107TIP3    H234894   5.006   5.150   8.653 -0.3772  0.1290  0.4124
 6108TIP3   OH234895   4.202   0.401   9.096  0.1193  0.2451 -0.0987
 6108TIP3    H134896   4.256   0.339   9.047 -0.3983 -0.5013  0.2560
 6108TIP3    H234897   4.202   0.368   9.186 -1.5201 -0.2276 -0.2240
 6109TIP3   OH234898   3.703   5.237   7.600  0.1722 -0.2909 -0.6795
 6109TIP3    H134899   3.724   5.235   7.506 -1.8246 -0.3853 -1.1622
 6109TIP3    H234900   3.788   5.222   7.643  0.9271 -1.7013 -2.4832
 6110TIP3   OH234901   4.398   2.754   0.115  0.2438 -0.5461 -0.2298
 6110TIP3    H134902   4.334   2.744   0.044 -1.9010  0.1005  1.4969
 6110TIP3    H234903   4.432   2.843   0.104 -2.1594  0.6158  1.0763
 6111TIP3   OH234904   5.720   3.068   9.361 -0.1565 -0.1840 -0.4364
 6111TIP3    H134905   5.773   3.054   9.440  0.9068  0.5333 -0.9999
 6111TIP3    H234906   5.631   3.081   9.394  0.0423 -1.1623  0.5507
 6112TIP3   OH234907   1.873   3.802   2.161 -0.1696 -0.1223  0.3658
 6112TIP3    H134908   1.810   3.730   2.164  0.8331 -1.0767 -0.5553
 6112TIP3    H234909   1.958   3.761   2.177  0.1726  1.2825  2.5182
 6113TIP3   OH234910   4.065   3.763   7.636  0.0652 -0.8287  0.6375
 6113TIP3    H134911   3.982   3.729   7.671 -1.9018  1.4052 -1.4794
 6113TIP3    H234912   4.086   3.705   7.563 -0.9422 -0.1135 -0.2567
 6114TIP3   OH234913   0.901   3.943   8.109 -0.6120 -0.2120  0.6152
 6114TIP3    H134914   0.903   4.039   8.102 -0.1453 -0.2706 -0.1262
 6114TIP3    H234915   0.971   3.914   8.052 -1.4445 -1.0481 -0.0027
 6115TIP3   OH234916   3.182   0.923   8.459  0.9365  0.1614 -0.0708
 6115TIP3    H134917   3.113   0.968   8.507 -0.4925 -0.7482 -1.2080
 6115TIP3    H234918   3.215   0.857   8.521  1.4723  1.2148  0.8018
 6116TIP3   OH234919   5.213   4.398   8.641  0.3925 -0.3943  0.1908
 6116TIP3    H134920   5.239   4.344   8.715  2.4808  0.5724  0.2529
 6116TIP3    H234921   5.286   4.390   8.580  0.7066  2.1682  0.1405
 6117TIP3   OH234922   1.136   1.178   7.162  0.1584  0.6933 -0.4270
 6117TIP3    H134923   1.127   1.203   7.071  0.5761  1.3783 -0.2867
 6117TIP3    H234924   1.078   1.238   7.210 -1.9616 -1.2076 -0.4349
 6118TIP3   OH234925   6.394   0.149   7.287  0.4372 -0.1943  0.0138
 6118TIP3    H134926   6.360   0.228   7.245  3.1336  1.0129 -0.0992
 6118TIP3    H234927   6.326   0.084   7.273 -0.7828  1.4034 -2.1681
 6119TIP3   OH234928   3.610   5.703   8.312  0.1873 -0.1159  0.2325
 6119TIP3    H134929   3.650   5.789   8.325 -0.4183  0.2269 -0.1107
 6119TIP3    H234930   3.546   5.696   8.383  0.1856 -0.2478  0.2178
 6120TIP3   OH234931   3.461   3.755   7.756 -0.4211  0.3416  0.1179
 6120TIP3    H134932   3.464   3.695   7.680  1.8237  1.2856 -0.6154
 6120TIP3    H234933   3.394   3.819   7.733 -2.3300 -1.3772  0.5843
 6121TIP3   OH234934   3.366   0.049   2.116 -0.2678 -0.0372  0.0743
 6121TIP3    H134935   3.393   0.032   2.207  2.9811 -1.7378 -1.0581
 6121TIP3    H234936   3.388   0.141   2.102 -0.1012  0.0425  0.7978
 6122TIP3   OH234937   3.049   2.496   7.858  0.5359  0.5701  0.0663
 6122TIP3    H134938   3.056   2.466   7.767  0.2227  0.3648  0.1108
 6122TIP3    H234939   3.028   2.417   7.908 -1.8504  1.0831 -0.0123
 6123TIP3   OH234940   1.842   2.961   8.198  0.1503  0.2756 -0.2983
 6123TIP3    H134941   1.871   3.046   8.165  0.0744  0.4061 -0.0246
 6123TIP3    H234942   1.871   2.958   8.289  0.5341 -0.1720 -0.4314
 6124TIP3   OH234943   2.998   6.091   0.272  0.7273  0.3299  0.8051
 6124TIP3    H134944   2.920   6.109   0.326 -0.8149  1.9197 -1.7465
 6124TIP3    H234945   3.002   5.996   0.267 -1.1230  0.2073  0.9812
 6125TIP3   OH234946   1.229   5.841   6.818 -0.1578  0.1357  0.2970
 6125TIP3    H134947   1.321   5.817   6.825  0.0676  0.2493 -1.7148
 6125TIP3    H234948   1.231   5.930   6.783 -1.0454  0.8232  1.8822
 6126TIP3   OH234949   3.176   3.020   0.174 -0.0144  0.1214 -0.2374
 6126TIP3    H134950   3.142   3.102   0.139 -0.0979  0.0327 -0.3653
 6126TIP3    H234951   3.261   3.010   0.132 -0.9668 -1.0077 -2.0087
 6127TIP3   OH234952   5.730   4.066   7.122  0.2217  0.1563 -0.0765
 6127TIP3    H134953   5.809   4.060   7.175  0.6522 -1.0264 -0.8083
 6127TIP3    H234954   5.668   4.114   7.176  1.1186  0.2326  0.9111
 6128TIP3   OH234955   5.764   5.091   3.037 -0.2014 -0.1746 -0.1913
 6128TIP3    H134956   5.810   5.171   3.011 -1.4215  0.3818 -0.7171
 6128TIP3    H234957   5.833   5.033   3.071  0.4940  1.7014  1.7969
 6129TIP3   OH234958   2.051   4.562  -0.005  0.8093  0.2225 -0.5164
 6129TIP3    H134959   2.044   4.563   0.090 -0.9345 -0.1421 -0.6061
 6129TIP3    H234960   2.145   4.572  -0.023  1.4058 -1.5835  1.2621
 6130TIP3   OH234961   6.373   3.933   2.333  0.6282  0.4598  0.4333
 6130TIP3    H134962   6.370   3.990   2.256 -1.6771  1.5346  1.2426
 6130TIP3    H234963   6.285   3.896   2.339  1.8496 -2.7823  0.3134
 6131TIP3   OH234964   3.064   0.231   1.496 -0.8388 -0.4167 -0.5533
 6131TIP3    H134965   3.024   0.284   1.565  0.6138  1.1002 -0.8076
 6131TIP3    H234966   3.127   0.174   1.543 -0.2679  0.2042 -0.5542
 6132TIP3   OH234967   1.168   1.637   8.507 -0.7679 -0.9416  0.3391
 6132TIP3    H134968   1.125   1.675   8.431 -0.1781  0.1197  0.5275
 6132TIP3    H234969   1.247   1.596   8.472  0.9156  1.8047  0.6420
 6133TIP3   OH234970   1.836   4.318   2.113 -0.4537  0.0662 -0.7176
 6133TIP3    H134971   1.871   4.229   2.109 -0.2792 -0.1124  2.6551
 6133TIP3    H234972   1.909   4.373   2.082 -0.1533 -0.8425 -1.6888
 6134TIP3   OH234973   5.285   1.042   7.971 -0.3059  0.8085  0.1516
 6134TIP3    H134974   5.303   1.134   7.990  0.8706  1.2185 -2.6085
 6134TIP3    H234975   5.347   0.994   8.026 -0.4585  1.6490  1.1019
 6135TIP3   OH234976   2.360   0.150   7.320 -0.2856  0.2700 -0.4065
 6135TIP3    H134977   2.272   0.148   7.282 -0.2745 -1.5440 -0.4355
 6135TIP3    H234978   2.346   0.180   7.410 -0.7230  1.4201 -0.8376
 6136TIP3   OH234979   2.593   0.654   2.204  0.8002  0.3309  0.5494
 6136TIP3    H134980   2.621   0.739   2.169 -0.0191  0.5947  0.5164
 6136TIP3    H234981   2.497   0.657   2.201  0.7565 -0.4400  0.9256
 6137TIP3   OH234982   0.219   5.105   1.595  0.2165  0.1462 -0.0376
 6137TIP3    H134983   0.170   5.176   1.555  1.0302 -0.4882 -2.3193
 6137TIP3    H234984   0.152   5.046   1.631 -0.8778 -0.9069 -3.4280
 6138TIP3   OH234985   2.514   0.012   1.230  0.5982 -0.4129  0.4238
 6138TIP3    H134986   2.558  -0.073   1.221 -0.8119 -1.0378 -1.1765
 6138TIP3    H234987   2.569   0.072   1.179  0.7710 -0.7170  0.2439
 6139TIP3   OH234988   2.206   2.219   0.817 -0.2283  0.0082 -0.1023
 6139TIP3    H134989   2.167   2.304   0.836  0.6391  0.4517 -0.2098
 6139TIP3    H234990   2.138   2.170   0.771 -0.4797  0.9257 -0.7234
 6140TIP3   OH234991   5.726   5.877   9.302  0.1782 -0.4621 -0.3851
 6140TIP3    H134992   5.741   5.827   9.221  0.0597  0.5180 -1.0366
 6140TIP3    H234993   5.811   5.877   9.346  0.4058 -0.4915 -0.8136
 6141TIP3   OH234994   4.023   1.372   2.491 -0.0428 -0.2377 -0.2341
 6141TIP3    H134995   4.099   1.347   2.542 -0.9363  0.1219  1.3401
 6141TIP3    H234996   4.039   1.334   2.404  1.3554 -1.1751  0.3927
 6142TIP3   OH234997   1.574   4.663   9.177 -0.2204  0.2970  0.0225
 6142TIP3    H134998   1.565   4.753   9.210  1.7765  0.5744 -0.0740
 6142TIP3    H234999   1.576   4.609   9.256 -1.5594  0.2882  0.0775
 6143TIP3   OH235000   1.580   4.340   7.505 -0.3314 -0.3555 -0.0366
 6143TIP3    H135001   1.654   4.361   7.447  0.1432  0.6693  0.9133
 6143TIP3    H235002   1.514   4.405   7.483  0.6188  1.3626  1.9504
 6144TIP3   OH235003   5.411   0.823   8.317 -0.4214  0.0540  0.0297
 6144TIP3    H135004   5.455   0.742   8.290 -2.0373 -0.7379 -0.3913
 6144TIP3    H235005   5.476   0.892   8.306 -0.1414 -0.6168 -3.3841
 6145TIP3   OH235006   3.010   4.601   7.402 -0.0396 -0.8974  0.0304
 6145TIP3    H135007   2.970   4.518   7.376 -1.8334 -0.2666  0.5660
 6145TIP3    H235008   3.027   4.591   7.496  0.8150 -1.0645 -0.1414
 6146TIP3   OH235009   2.222   5.538   0.256  0.1784 -0.0912  0.7295
 6146TIP3    H135010   2.150   5.541   0.319 -0.1836  0.3824  0.3103
 6146TIP3    H235011   2.193   5.476   0.188 -0.0658  0.4765  0.3026
 6147TIP3   OH235012   2.795   0.913   8.169 -0.8614 -0.0958 -0.4531
 6147TIP3    H135013   2.853   0.868   8.108  1.4424  1.4943  0.3993
 6147TIP3    H235014   2.711   0.918   8.124  0.6802  0.9117 -3.4791
 6148TIP3   OH235015   6.204   1.711   6.806  0.2104 -0.1271  0.4776
 6148TIP3    H135016   6.270   1.742   6.744 -0.2479 -0.6066 -0.2624
 6148TIP3    H235017   6.218   1.617   6.812 -0.9573 -0.3797 -0.3802
 6149TIP3   OH235018   5.194   0.528   1.596  0.3781  0.1079 -0.0938
 6149TIP3    H135019   5.109   0.485   1.585  0.6518 -0.1156 -1.4587
 6149TIP3    H235020   5.203   0.537   1.691 -0.3362 -1.5417  0.1680
 6150TIP3   OH235021   2.863   6.190   8.884  0.1042  0.1936 -0.2658
 6150TIP3    H135022   2.880   6.283   8.900 -0.1828  0.3992 -1.1136
 6150TIP3    H235023   2.824   6.158   8.965 -1.7140  1.2980 -0.6522
 6151TIP3   OH235024   4.556   0.497   7.591  0.5549  0.0531 -0.0761
 6151TIP3    H135025   4.504   0.562   7.544 -0.1976 -0.0289  0.6334
 6151TIP3    H235026   4.635   0.486   7.537 -0.9721 -1.2138 -2.1924
 6152TIP3   OH235027   5.290   4.100   9.196 -0.7740  0.5639  0.2626
 6152TIP3    H135028   5.317   4.191   9.189 -0.4052  0.4332 -0.0697
 6152TIP3    H235029   5.334   4.056   9.123 -2.8517  0.5554 -1.0715
 6153TIP3   OH235030   1.344   2.082   6.622 -0.0494  0.4928  0.3266
 6153TIP3    H135031   1.271   2.073   6.560  1.7450  3.3428 -2.5199
 6153TIP3    H235032   1.417   2.115   6.569  2.2229  1.3910  3.6725
 6154TIP3   OH235033   2.009   2.866   1.622 -0.8802 -0.1386  0.0491
 6154TIP3    H135034   2.097   2.855   1.586 -1.4863 -0.4721 -1.3860
 6154TIP3    H235035   1.997   2.961   1.629 -0.1417 -0.1051  0.9521
 6155TIP3   OH235036   3.007   3.005   8.599  0.3391 -0.7639 -0.1334
 6155TIP3    H135037   2.976   3.023   8.510 -1.6343 -4.5077 -0.4114
 6155TIP3    H235038   2.983   2.913   8.614  2.0804 -0.7581  3.6983
 6156TIP3   OH235039   1.855   2.636   1.641 -0.2323  0.1849  0.3237
 6156TIP3    H135040   1.803   2.699   1.690  0.2668  2.8817 -2.3350
 6156TIP3    H235041   1.933   2.685   1.614  0.5108 -1.7771 -1.3261
 6157TIP3   OH235042   4.050   4.895   9.122 -0.0940  0.0269  0.4409
 6157TIP3    H135043   4.007   4.864   9.201  1.0554 -1.8470  0.3655
 6157TIP3    H235044   4.127   4.943   9.153 -1.0041  1.5582  0.4898
 6158TIP3   OH235045   3.583   5.638   8.992 -0.2839 -0.1311 -0.0678
 6158TIP3    H135046   3.563   5.596   9.075 -0.7389  2.6808  1.3777
 6158TIP3    H235047   3.528   5.594   8.928 -1.8709 -0.6891  1.6078
 6159TIP3   OH235048   6.048   2.601   7.626  0.2003  0.3727  0.7423
 6159TIP3    H135049   5.974   2.660   7.612  0.1388  0.3838  1.1076
 6159TIP3    H235050   6.038   2.570   7.717  0.6606  0.4044  0.8064
 6160TIP3   OH235051   0.172   4.228   8.664  0.0797  0.0652  0.3473
 6160TIP3    H135052   0.199   4.160   8.602  3.1461  1.3874  0.1079
 6160TIP3    H235053   0.184   4.310   8.617 -3.2737  0.9334  0.7406
 6161TIP3   OH235054   5.627   5.455   2.100 -0.6466  0.2247 -0.2994
 6161TIP3    H135055   5.659   5.400   2.028  1.8745 -1.6995  2.0972
 6161TIP3    H235056   5.686   5.531   2.100 -1.0645  0.5580 -0.6152
 6162TIP3   OH235057   1.665   0.970   7.533  0.0489 -0.0852  0.0523
 6162TIP3    H135058   1.718   1.025   7.475 -0.5711 -1.3560 -1.8195
 6162TIP3    H235059   1.701   0.882   7.524 -0.1150 -0.3381  1.5818
 6163TIP3   OH235060   4.830   0.474   8.448 -0.3239  0.4609 -0.4377
 6163TIP3    H135061   4.884   0.537   8.401 -0.0870  0.5757 -0.0187
 6163TIP3    H235062   4.892   0.412   8.487 -0.5149  0.3634 -0.2811
 6164TIP3   OH235063   1.941   0.076   8.668 -0.1731 -0.1111 -0.5121
 6164TIP3    H135064   1.879   0.018   8.623 -0.3319  0.2115 -0.7091
 6164TIP3    H235065   2.013   0.086   8.606  0.4787 -1.1576  0.0413
 6165TIP3   OH235066   4.477   0.203   0.299 -0.2432  0.0788 -0.2697
 6165TIP3    H135067   4.560   0.191   0.346  1.2711 -0.0888 -2.8121
 6165TIP3    H235068   4.451   0.115   0.273 -1.0545  0.1791  0.1516
 6166TIP3   OH235069   5.300   5.186   8.258 -0.5699 -0.2915 -0.5324
 6166TIP3    H135070   5.266   5.223   8.340  1.1219  0.3729 -0.0870
 6166TIP3    H235071   5.230   5.201   8.195 -2.3646 -1.7527  0.9664
 6167TIP3   OH235072   0.234   4.091   7.378  0.4385  0.3922 -0.1365
 6167TIP3    H135073   0.248   4.144   7.300 -2.8159  0.1302 -1.0662
 6167TIP3    H235074   0.276   4.008   7.359 -0.6217  0.2025 -1.8392
 6168TIP3   OH235075   5.330   3.695   0.894  0.1305  0.0618 -0.4116
 6168TIP3    H135076   5.266   3.678   0.825 -0.9493  0.1978  0.5250
 6168TIP3    H235077   5.353   3.787   0.883  1.4121 -0.3699 -1.7358
 6169TIP3   OH235078   4.352   3.592   1.458 -0.3614  0.3445  0.0330
 6169TIP3    H135079   4.402   3.531   1.513 -1.3877 -0.2681  0.3168
 6169TIP3    H235080   4.276   3.615   1.512 -1.4485 -0.3539 -1.1601
 6170TIP3   OH235081   2.240   3.395   7.881 -0.0215 -0.1003  0.6383
 6170TIP3    H135082   2.269   3.422   7.794 -1.0509  0.6396  0.5137
 6170TIP3    H235083   2.304   3.435   7.941 -0.5248  1.1920  0.3419
 6171TIP3   OH235084   4.177   2.940   6.523 -0.3385 -0.3734  0.6336
 6171TIP3    H135085   4.158   2.896   6.440  0.6831  1.5843 -0.7323
 6171TIP3    H235086   4.106   2.915   6.581 -0.1506 -3.2191 -0.2263
 6172TIP3   OH235087   0.319   4.584   8.058 -0.3502 -0.2423 -0.5243
 6172TIP3    H135088   0.372   4.507   8.078 -0.8829 -0.9141 -1.6151
 6172TIP3    H235089   0.263   4.595   8.135  0.3961 -0.3515  0.0454
 6173TIP3   OH235090   5.127   3.638   3.536 -0.1529 -0.3323  0.3685
 6173TIP3    H135091   5.052   3.587   3.503 -1.0932  1.6297 -0.7176
 6173TIP3    H235092   5.179   3.575   3.585 -1.6734 -2.1405 -0.2155
 6174TIP3   OH235093   5.919   5.334   0.325  0.1417  0.0203 -0.0926
 6174TIP3    H135094   5.989   5.399   0.313 -0.7289  0.7069 -1.7851
 6174TIP3    H235095   5.964   5.250   0.323  1.0699  0.4956  0.1988
 6175TIP3   OH235096   1.969   1.329   5.784 -0.4302 -0.9801  0.4988
 6175TIP3    H135097   1.889   1.363   5.824 -0.5899 -0.2762 -0.3788
 6175TIP3    H235098   1.946   1.240   5.757 -1.3769 -0.3399 -0.9399
 6176TIP3   OH235099   2.217   6.346   8.872  0.3982 -0.3111 -0.1353
 6176TIP3    H135100   2.200   6.335   8.778  0.2057 -3.3779  0.1568
 6176TIP3    H235101   2.310   6.323   8.882  0.5852  0.6140  0.3756
 6177TIP3   OH235102   3.608   2.927   2.156 -0.2338 -0.1172  0.1156
 6177TIP3    H135103   3.652   2.951   2.075  0.7330 -0.3007  0.5720
 6177TIP3    H235104   3.613   2.831   2.158 -0.5295 -0.1294  0.2384
 6178TIP3   OH235105   4.964   4.390   0.513  0.2728 -0.6735 -0.6117
 6178TIP3    H135106   5.015   4.418   0.437  0.9663  0.3402  0.1982
 6178TIP3    H235107   4.924   4.471   0.545 -0.0074 -1.0901  0.1046
 6179TIP3   OH235108   3.565   1.729   7.599  0.4922 -0.0702 -0.2977
 6179TIP3    H135109   3.488   1.774   7.564  0.4931  0.1188 -0.0540
 6179TIP3    H235110   3.638   1.788   7.581  0.7174 -0.6236 -1.3033
 6180TIP3   OH235111   4.014   6.318   2.455  0.2906  0.7476  0.4053
 6180TIP3    H135112   4.070   6.244   2.433 -0.4181 -0.5486  2.5886
 6180TIP3    H235113   4.017   6.374   2.378  1.0495 -1.4272 -1.2692
 6181TIP3   OH235114   4.350   0.103   7.996 -0.6884  0.6039  0.1807
 6181TIP3    H135115   4.314   0.168   7.936 -0.0333  2.6117  1.8589
 6181TIP3    H235116   4.429   0.071   7.951 -1.4145  0.3662 -0.9869
 6182TIP3   OH235117   3.106   0.549   1.925 -0.5323 -0.4136  0.2046
 6182TIP3    H135118   3.115   0.642   1.903  0.3690 -0.8269 -1.4129
 6182TIP3    H235119   3.107   0.505   1.840 -1.1753 -1.8949  0.9292
 6183TIP3   OH235120   0.079   4.082   6.899  0.0735 -0.0763  0.0197
 6183TIP3    H135121   0.066   4.167   6.941  0.4863  0.2437 -0.4836
 6183TIP3    H235122   0.002   4.070   6.844  0.3484  0.3024 -0.4523
 6184TIP3   OH235123   1.425   6.415   2.191 -0.1419  0.2569 -0.2914
 6184TIP3    H135124   1.410   6.322   2.174  2.3410 -0.1664 -0.5470
 6184TIP3    H235125   1.347   6.443   2.239 -0.8155 -2.0325  0.0960
 6185TIP3   OH235126   1.714   1.428   8.554 -0.6623  0.5801 -0.3038
 6185TIP3    H135127   1.725   1.337   8.581 -2.5288  0.3255 -0.3106
 6185TIP3    H235128   1.727   1.427   8.459  1.9338  0.8109 -0.0225
 6186TIP3   OH235129   5.419   0.863   7.077  0.1360  0.3183  0.1157
 6186TIP3    H135130   5.379   0.879   6.991 -0.7037  0.2134  0.4756
 6186TIP3    H235131   5.450   0.773   7.072  1.9439  0.9308 -0.7750
 6187TIP3   OH235132   4.789   1.142   8.498  0.3518 -0.1532 -0.2833
 6187TIP3    H135133   4.874   1.165   8.460  0.4747 -0.4317 -0.1768
 6187TIP3    H235134   4.725   1.188   8.442  0.5862  0.4026 -0.1062
 6188TIP3   OH235135   1.286   0.447   7.689 -0.0421  0.2442 -0.4930
 6188TIP3    H135136   1.233   0.521   7.659  0.2079  1.4070  1.6781
 6188TIP3    H235137   1.233   0.405   7.757  0.0272 -1.3023 -1.3621
 6189TIP3   OH235138   3.798   0.075   7.520 -0.5393 -0.0430  0.2635
 6189TIP3    H135139   3.876   0.116   7.557 -0.2014 -0.2483 -0.2183
 6189TIP3    H235140   3.733   0.146   7.517  0.0611  0.4905 -0.6218
 6190TIP3   OH235141   6.079   6.373   2.437  0.0031  0.6493  0.5060
 6190TIP3    H135142   6.094   6.437   2.368  1.5887 -0.4749 -0.2616
 6190TIP3    H235143   6.163   6.363   2.481 -0.8216  0.8737  2.2340
 6191TIP3   OH235144   2.511   6.362   1.642 -0.3581 -0.4004 -0.0436
 6191TIP3    H135145   2.574   6.321   1.701  1.0827 -0.2029 -1.3722
 6191TIP3    H235146   2.535   6.454   1.642 -1.3254 -0.1316  0.1996
 6192TIP3   OH235147   1.180   4.248   8.536 -0.2371 -0.2816 -0.3488
 6192TIP3    H135148   1.120   4.290   8.474  1.3566  2.0422 -0.4832
 6192TIP3    H235149   1.124   4.203   8.599 -2.3392  3.4788  0.7767
 6193TIP3   OH235150   2.357   3.507   8.309  0.1676  0.1071 -0.0350
 6193TIP3    H135151   2.268   3.540   8.306  0.1908  0.2297  0.4936
 6193TIP3    H235152   2.379   3.486   8.218 -1.1578 -1.9445  0.0416
 6194TIP3   OH235153   5.769   0.041   1.581  0.6591 -0.3117  0.0668
 6194TIP3    H135154   5.704   0.100   1.542 -0.5979 -1.0759  0.9064
 6194TIP3    H235155   5.805   0.092   1.654 -0.5336 -0.5903  0.8865
 6195TIP3   OH235156   6.174   0.165   8.290 -0.4182 -0.4619 -0.0748
 6195TIP3    H135157   6.089   0.143   8.327 -1.8062  0.5815 -2.4363
 6195TIP3    H235158   6.165   0.255   8.260  2.2717  0.4769  1.4883
 6196TIP3   OH235159   5.919   3.314   6.543 -0.3722  0.0977 -0.0886
 6196TIP3    H135160   5.984   3.248   6.566 -1.3025 -0.6942  0.3278
 6196TIP3    H235161   5.933   3.330   6.450 -2.3327 -3.2844 -1.1150
 6197TIP3   OH235162   2.244   0.450   2.029 -0.2444  0.0960  0.3019
 6197TIP3    H135163   2.291   0.398   2.094 -2.2695  0.5239  2.1928
 6197TIP3    H235164   2.272   0.540   2.046 -1.3001  0.2903  1.0910
 6198TIP3   OH235165   1.466   5.396   2.700  0.2158 -0.3826 -0.1774
 6198TIP3    H135166   1.459   5.346   2.781 -1.0091  1.1073  0.6950
 6198TIP3    H235167   1.431   5.338   2.633 -1.2874 -0.6824  0.8160
 6199TIP3   OH235168   2.234   4.621   2.413  0.1476 -0.0644  0.4468
 6199TIP3    H135169   2.312   4.594   2.366  0.7288  2.0437  0.0941
 6199TIP3    H235170   2.266   4.663   2.493 -0.5561  1.1369  0.1355
 6200TIP3   OH235171   2.897   3.496   2.134 -0.2097 -0.1486  0.8203
 6200TIP3    H135172   2.966   3.517   2.072 -0.1499 -1.3667  0.4437
 6200TIP3    H235173   2.942   3.488   2.219  0.3758 -2.1458  0.3840
 6201TIP3   OH235174   3.157   1.130   1.388 -0.5118  0.1647  0.2118
 6201TIP3    H135175   3.239   1.087   1.363 -0.5368  0.9623 -1.3401
 6201TIP3    H235176   3.183   1.218   1.415 -0.9804  1.2153 -2.4104
 6202TIP3   OH235177   1.245   0.416   8.736  0.0760 -0.7341 -0.3371
 6202TIP3    H135178   1.335   0.383   8.743  0.2982  0.1908  2.6383
 6202TIP3    H235179   1.253   0.511   8.739 -0.9831 -0.6403  0.2614
 6203TIP3   OH235180   2.390   4.640   8.003  0.3645 -0.3728  0.8405
 6203TIP3    H135181   2.440   4.718   8.030  0.6879 -0.5896  0.8691
 6203TIP3    H235182   2.342   4.614   8.081  0.5014 -0.3899  0.9186
 6204TIP3   OH235183   2.957   2.058   2.004 -0.3345  0.0887  0.6687
 6204TIP3    H135184   3.016   2.129   2.029  1.3583 -1.0736  0.1804
 6204TIP3    H235185   3.015   1.984   1.985 -1.8549 -0.7146 -1.2382
 6205TIP3   OH235186   6.329   4.562   7.815 -0.7433 -1.0847  0.3155
 6205TIP3    H135187   6.424   4.551   7.820 -0.5977 -1.1833 -1.8414
 6205TIP3    H235188   6.313   4.653   7.841  0.2074 -0.3767 -1.4172
 6206TIP3   OH235189   4.052   2.349   6.266 -0.3713  0.4180  0.8650
 6206TIP3    H135190   4.123   2.290   6.294  0.9427  0.8930 -1.1960
 6206TIP3    H235191   4.059   2.424   6.325  1.8192  1.0710 -0.1033
 6207TIP3   OH235192   0.564   5.397   1.204 -0.8989  0.1333  0.0267
 6207TIP3    H135193   0.472   5.370   1.194 -1.1596  0.6648  0.8860
 6207TIP3    H235194   0.561   5.473   1.261  0.0905  0.1316  0.1038
 6208TIP3   OH235195   0.538   0.394   8.545  0.3115 -0.2756  0.3675
 6208TIP3    H135196   0.502   0.482   8.545  0.5416 -0.1806 -0.5062
 6208TIP3    H235197   0.470   0.340   8.505  0.6499 -0.2959 -0.1855
 6209TIP3   OH235198   5.912   0.954   0.057 -0.3529  0.3066  0.2455
 6209TIP3    H135199   5.989   1.007   0.035 -0.9770  0.7391 -0.9470
 6209TIP3    H235200   5.923   0.874   0.006 -0.4998  0.2024  0.3771
 6210TIP3   OH235201   5.313   4.466   1.246 -0.4316  0.4708 -0.3740
 6210TIP3    H135202   5.283   4.474   1.155 -1.2626  0.7804 -0.0828
 6210TIP3    H235203   5.304   4.555   1.281  0.7247  0.5476 -0.2328
 6211TIP3   OH235204   5.277   1.753   7.897  0.3377  0.1734  0.6134
 6211TIP3    H135205   5.337   1.714   7.960  0.5650  1.2088  1.0645
 6211TIP3    H235206   5.213   1.800   7.950 -0.1928  0.0423  0.1019
 6212TIP3   OH235207   3.338   5.935  -0.000  0.0235 -0.5301  0.3614
 6212TIP3    H135208   3.410   5.873  -0.009  1.6194  1.0086  1.7977
 6212TIP3    H235209   3.262   5.881   0.019  0.8967 -2.1640 -0.5380
 6213TIP3   OH235210   4.498   0.381   1.017  0.0357  0.1972 -0.3272
 6213TIP3    H135211   4.467   0.412   0.932 -3.2759  1.0670  1.0502
 6213TIP3    H235212   4.471   0.448   1.079 -0.5033 -1.8647  1.8230
 6214TIP3   OH235213   0.459   1.721   1.689  0.2662 -0.3523  0.0686
 6214TIP3    H135214   0.511   1.738   1.611  2.0133 -1.2042  0.9927
 6214TIP3    H235215   0.491   1.637   1.721 -2.1214 -1.2151  0.3719
 6215TIP3   OH235216   4.303   5.282   0.791 -0.0474  0.3377  0.0522
 6215TIP3    H135217   4.242   5.303   0.721  0.2822  1.4116  0.0777
 6215TIP3    H235218   4.390   5.291   0.752  0.1374 -2.3386 -0.3227
 6216TIP3   OH235219   4.101   1.345   1.375  0.5422  0.3410  0.7582
 6216TIP3    H135220   4.016   1.349   1.418  0.5518  1.7510  0.6947
 6216TIP3    H235221   4.135   1.259   1.396 -1.7802 -1.1031 -0.9115
 6217TIP3   OH235222   3.044   2.236   7.947 -0.5043 -0.5018 -0.2933
 6217TIP3    H135223   3.001   2.151   7.944 -0.7790 -0.3931  0.4178
 6217TIP3    H235224   3.095   2.235   8.028 -0.7722  0.1327 -0.1119
 6218TIP3   OH235225   4.605   4.863   2.069  0.3101 -0.2235 -0.0700
 6218TIP3    H135226   4.645   4.897   2.149  0.8805 -0.1173 -0.3956
 6218TIP3    H235227   4.537   4.927   2.047  0.7809  0.2418 -0.1877
 6219TIP3   OH235228   3.854   4.633   7.264  0.7111  0.4032 -0.6787
 6219TIP3    H135229   3.772   4.592   7.236  0.7910 -0.4851  0.3131
 6219TIP3    H235230   3.918   4.606   7.200  0.9283 -1.7287  0.3538
 6220TIP3   OH235231   4.196   1.793   6.379  0.2854 -0.1289 -0.3859
 6220TIP3    H135232   4.238   1.839   6.451 -0.8241  1.8630 -0.9337
 6220TIP3    H235233   4.165   1.711   6.418 -0.4635  0.9711  1.4920
 6221TIP3   OH235234   3.621   3.795   8.501 -0.5342  0.1979  0.0075
 6221TIP3    H135235   3.655   3.868   8.450 -2.0877  0.1778 -1.1491
 6221TIP3    H235236   3.536   3.826   8.533 -0.3970 -0.4598  1.0359
 6222TIP3   OH235237   0.919   6.121   0.943 -0.0178 -0.3040  0.1387
 6222TIP3    H135238   0.887   6.189   0.884  1.3588 -0.4554 -0.8393
 6222TIP3    H235239   0.980   6.070   0.890 -0.6274 -2.0048  0.9892
 6223TIP3   OH235240   3.214   5.733   8.725 -0.1180 -0.4356  0.1710
 6223TIP3    H135241   3.224   5.793   8.799  2.0720  0.7319 -0.9558
 6223TIP3    H235242   3.162   5.782   8.661 -1.2434 -1.1023  0.5394
 6224TIP3   OH235243   3.176   3.436   1.278 -0.2657 -0.3509  0.0239
 6224TIP3    H135244   3.230   3.453   1.201  0.2865  0.2783  0.5380
 6224TIP3    H235245   3.239   3.430   1.350 -0.7931 -0.7101  0.4627
 6225TIP3   OH235246   2.303   2.494   7.983 -0.8117  0.0378 -0.2523
 6225TIP3    H135247   2.269   2.584   7.982 -2.1290 -0.4382 -1.2329
 6225TIP3    H235248   2.365   2.491   7.910 -0.7580  0.1491 -0.2119
 6226TIP3   OH235249   4.480   3.070   2.966  0.4221 -0.0627 -0.2359
 6226TIP3    H135250   4.482   2.977   2.944 -0.1951  0.2001 -1.5393
 6226TIP3    H235251   4.570   3.099   2.958  0.3726 -0.2016 -1.5884
 6227TIP3   OH235252   0.463   6.044   6.327  0.3617  0.0179  0.5641
 6227TIP3    H135253   0.420   5.960   6.339 -3.8700  1.7106 -1.1093
 6227TIP3    H235254   0.422   6.102   6.391  2.4063  1.1485  0.9560
 6228TIP3   OH235255   4.185   5.623   0.049 -0.0124 -0.1454 -0.3661
 6228TIP3    H135256   4.167   5.551  -0.012 -0.3528  0.2763 -0.7698
 6228TIP3    H235257   4.120   5.689   0.028 -0.1445  0.0025  0.4795
 6229TIP3   OH235258   3.918   5.078   2.151  1.2155  0.1791 -0.2066
 6229TIP3    H135259   3.850   5.086   2.084  0.2039 -0.8808  0.6470
 6229TIP3    H235260   3.884   5.012   2.211  3.4200 -1.0707 -0.2446
 6230TIP3   OH235261   4.034   0.310   0.120 -0.1532  0.3059 -0.3452
 6230TIP3    H135262   4.024   0.402   0.093  1.4965  0.6167 -0.0054
 6230TIP3    H235263   3.979   0.302   0.198 -2.0268  0.3957 -1.6113
 6231TIP3   OH235264   4.206   1.226   2.640 -0.0411 -0.1064  0.2382
 6231TIP3    H135265   4.235   1.145   2.683  2.6140  0.1359 -0.8971
 6231TIP3    H235266   4.168   1.196   2.558  1.7922 -0.2219 -0.6115
 6232TIP3   OH235267   4.049   1.719   2.131 -0.0653 -0.2371  0.3570
 6232TIP3    H135268   4.076   1.715   2.040  2.1832 -0.7407  0.9903
 6232TIP3    H235269   3.958   1.688   2.130 -0.6694  1.3612 -1.8712
 6233TIP3   OH235270   1.448   4.152   3.398 -0.0580  0.5953 -0.0861
 6233TIP3    H135271   1.393   4.085   3.357  2.0752  0.3297 -2.9038
 6233TIP3    H235272   1.514   4.103   3.446 -0.1964  0.7857  0.3016
 6234TIP3   OH235273   5.087   3.416   8.507  0.5278  0.2679 -0.5796
 6234TIP3    H135274   5.145   3.462   8.446  2.4723 -0.1232  0.8387
 6234TIP3    H235275   5.143   3.349   8.547 -1.1389 -0.6424  0.3427
 6235TIP3   OH235276   2.374   0.920   6.707  0.1926 -0.1991 -0.1975
 6235TIP3    H135277   2.381   0.828   6.734 -0.1975 -0.3973 -0.7522
 6235TIP3    H235278   2.464   0.946   6.686  0.3172 -0.4246  0.0564
 6236TIP3   OH235279   5.241   2.358   1.770  0.0381 -0.2374  0.0701
 6236TIP3    H135280   5.220   2.338   1.679 -1.3142  2.7431 -0.3943
 6236TIP3    H235281   5.171   2.417   1.798  1.6685  0.7897  2.2841
 6237TIP3   OH235282   0.044   0.543   0.822  0.0208 -0.0365  0.3044
 6237TIP3    H135283   0.013   0.547   0.913 -0.1020 -1.2903  0.3339
 6237TIP3    H235284   0.129   0.589   0.824  0.5778 -1.0485  1.3103
 6238TIP3   OH235285   2.413   0.428   7.854 -0.1624  0.0584 -0.2441
 6238TIP3    H135286   2.432   0.382   7.936  1.4599 -1.1530 -1.2299
 6238TIP3    H235287   2.331   0.473   7.871 -0.8240 -1.6215  1.4548
 6239TIP3   OH235288   2.855   0.636   0.373  0.5394 -0.0024  0.1388
 6239TIP3    H135289   2.870   0.557   0.426  0.6513 -0.4601 -0.5677
 6239TIP3    H235290   2.794   0.608   0.305  2.0384  0.0209 -1.2686
 6240TIP3   OH235291   6.040   3.688   7.933 -0.3706 -0.0975 -0.2552
 6240TIP3    H135292   5.967   3.682   7.871  0.0779 -1.9163 -0.6468
 6240TIP3    H235293   6.000   3.722   8.013 -1.0905  1.6538 -1.2813
 6241TIP3   OH235294  -0.001   0.428   7.487 -0.1758  0.3354 -0.2988
 6241TIP3    H135295   0.005   0.512   7.442  0.8163  0.9915  0.9692
 6241TIP3    H235296   0.072   0.377   7.453 -0.5231  0.1360 -0.7554
 6242TIP3   OH235297   0.477   5.099   3.099  0.1339 -0.0470  0.1508
 6242TIP3    H135298   0.383   5.101   3.078 -0.0336  2.2732  0.8335
 6242TIP3    H235299   0.520   5.125   3.018  0.1303 -0.3770  0.0439
 6243TIP3   OH235300   0.231   2.106   0.046 -0.6268  0.2174 -0.0533
 6243TIP3    H135301   0.295   2.046   0.009 -1.7740 -0.8777 -0.3331
 6243TIP3    H235302   0.158   2.105  -0.016 -0.5735  2.1225 -0.2024
 6244TIP3   OH235303   2.292   2.522   1.843  0.4279 -0.4538 -0.2141
 6244TIP3    H135304   2.354   2.594   1.831 -0.3549  0.3684  0.4864
 6244TIP3    H235305   2.218   2.562   1.889 -1.3998 -0.9875 -2.5424
 6245TIP3   OH235306   4.732   0.609   8.700  0.1177  0.0801 -0.0041
 6245TIP3    H135307   4.789   0.587   8.627 -0.1071 -1.3460  0.2185
 6245TIP3    H235308   4.684   0.687   8.671 -0.5387 -0.9132 -1.7153
 6246TIP3   OH235309   4.382   6.047   7.554  0.0141 -0.7725 -0.6764
 6246TIP3    H135310   4.415   6.032   7.465 -1.0273  0.1683 -1.2502
 6246TIP3    H235311   4.298   6.092   7.541 -0.1111 -0.5328  0.7912
 6247TIP3   OH235312   2.515   2.307   2.158  0.5023  0.2425 -0.8991
 6247TIP3    H135313   2.606   2.294   2.132  0.9082 -1.5944  1.1248
 6247TIP3    H235314   2.467   2.315   2.076  2.4806  1.4020 -2.0140
 6248TIP3   OH235315   5.637   3.331   9.169  0.4611 -0.1973 -0.6377
 6248TIP3    H135316   5.603   3.343   9.080 -1.8328  1.8738  0.4067
 6248TIP3    H235317   5.562   3.302   9.220  1.4433 -0.2253  0.8488
 6249TIP3   OH235318   1.277   2.558   7.656 -0.0407 -0.4838 -0.2876
 6249TIP3    H135319   1.307   2.618   7.724 -1.2814 -2.0777  1.7985
 6249TIP3    H235320   1.350   2.498   7.643  0.2647 -0.0693 -0.5265
 6250TIP3   OH235321   3.844   2.934   1.998 -0.8620  0.0182 -0.1191
 6250TIP3    H135322   3.848   3.026   2.022  2.1486  0.2462 -1.0647
 6250TIP3    H235323   3.834   2.934   1.903  1.5668 -0.5053 -0.4301
 6251TIP3   OH235324   5.009   4.087   9.155  0.0616  0.3822  0.7292
 6251TIP3    H135325   4.962   4.151   9.101 -1.9938  1.3091  3.4263
 6251TIP3    H235326   5.101   4.107   9.141 -0.4993  2.7861  0.1221
 6252TIP3   OH235327   1.878   3.794   3.324  0.5948  0.9112  0.2902
 6252TIP3    H135328   1.832   3.743   3.258  1.9072  0.8230 -0.5793
 6252TIP3    H235329   1.830   3.877   3.329 -0.3047  0.4062  0.2163
 6253TIP3   OH235330   5.725   3.279   7.121  0.1256 -0.6093  0.6837
 6253TIP3    H135331   5.743   3.189   7.092  2.6446 -0.9245  2.9209
 6253TIP3    H235332   5.809   3.324   7.113 -0.2354  0.5607  2.8938
 6254TIP3   OH235333   1.237   6.231   0.277  0.0235 -0.3495 -0.0937
 6254TIP3    H135334   1.197   6.251   0.362  0.0196  0.5557 -0.2926
 6254TIP3    H235335   1.189   6.155   0.244 -0.8685  0.1062  0.1271
 6255TIP3   OH235336   1.466   1.067   7.736 -0.0855  0.4646  0.4948
 6255TIP3    H135337   1.520   1.061   7.658  0.0514  0.2643  0.6043
 6255TIP3    H235338   1.466   1.160   7.759 -0.0539  0.5106  0.3102
 6256TIP3   OH235339   5.030   0.044   2.091 -0.3717  0.3048  0.4793
 6256TIP3    H135340   5.113   0.010   2.057 -0.8327 -1.5708  1.0814
 6256TIP3    H235341   5.052   0.079   2.177  0.2530  2.3835 -0.4523
 6257TIP3   OH235342   5.576   0.699   0.435 -0.3786 -0.1083 -0.3241
 6257TIP3    H135343   5.642   0.669   0.497 -1.0218 -0.1215  0.3724
 6257TIP3    H235344   5.595   0.792   0.422  0.3195 -0.3202 -0.8249
 6258TIP3   OH235345   4.303   1.184   2.184 -0.3854  0.3648 -0.2785
 6258TIP3    H135346   4.281   1.182   2.278  1.6431  1.7423  0.2953
 6258TIP3    H235347   4.296   1.276   2.160  1.0162  0.3234 -0.9553
 6259TIP3   OH235348   1.200   0.053   0.203  0.3058  0.1968 -0.6468
 6259TIP3    H135349   1.112   0.048   0.166 -0.0537 -0.9894  0.3138
 6259TIP3    H235350   1.230  -0.038   0.209  0.1591  0.2635  2.3092
 6260TIP3   OH235351   3.456   1.427   0.194 -0.0413 -0.1071 -0.5031
 6260TIP3    H135352   3.515   1.378   0.137  0.0833 -1.7277  0.9487
 6260TIP3    H235353   3.495   1.515   0.199  2.3440 -1.1226  0.4335
 6261TIP3   OH235354   5.515   0.101   1.518 -0.2102 -0.5750  0.0121
 6261TIP3    H135355   5.485   0.179   1.470 -2.6835 -1.6840 -0.3951
 6261TIP3    H235356   5.473   0.107   1.603 -0.4887 -1.5013 -0.0488
 6262TIP3   OH235357   4.325   4.619   8.325 -0.6076 -0.0235 -0.1102
 6262TIP3    H135358   4.236   4.635   8.294 -1.1551 -0.5084  1.1515
 6262TIP3    H235359   4.314   4.564   8.403  0.7711  0.3442  0.3705
 6263TIP3   OH235360   2.990   3.003   9.069  0.6416  0.3491  0.0574
 6263TIP3    H135361   2.956   2.923   9.030  1.3889 -0.3241  0.7436
 6263TIP3    H235362   2.978   2.992   9.163 -0.3066  1.5551  0.1052
 6264TIP3   OH235363   2.596   6.348   0.327 -0.1628  0.3139  0.1802
 6264TIP3    H135364   2.579   6.405   0.402  1.6112  0.1988  0.7145
 6264TIP3    H235365   2.537   6.274   0.340  0.8382 -0.2313  2.0933
 6265TIP3   OH235366   0.189   2.063   8.104 -0.3875 -0.6359  0.3138
 6265TIP3    H135367   0.201   2.062   8.199 -0.2989 -2.0552  0.3186
 6265TIP3    H235368   0.095   2.047   8.092 -0.2725 -1.2095  0.1632
 6266TIP3   OH235369   3.843   3.579   7.663 -0.0991  0.6419  1.0555
 6266TIP3    H135370   3.790   3.659   7.671 -0.0323  0.8114 -0.0452
 6266TIP3    H235371   3.787   3.519   7.614 -0.1301  0.0181  1.8437
 6267TIP3   OH235372   1.955   5.727   2.246  0.6045  0.1196 -0.0151
 6267TIP3    H135373   1.979   5.634   2.254 -0.3928 -0.4276 -2.5666
 6267TIP3    H235374   1.902   5.731   2.167  1.7849  3.1182 -0.7656
 6268TIP3   OH235375   1.069   6.269   7.205  0.6070  0.3231  0.6653
 6268TIP3    H135376   0.995   6.321   7.234  0.2550 -0.4586  1.2211
 6268TIP3    H235377   1.040   6.178   7.217  0.8084 -0.0271 -1.2700
 6269TIP3   OH235378   3.272   4.268   0.457  0.2734 -0.3792 -0.7355
 6269TIP3    H135379   3.218   4.192   0.480  0.3889 -0.7800 -1.7357
 6269TIP3    H235380   3.333   4.235   0.391  0.2339  0.6164 -1.2818
 6270TIP3   OH235381   2.303   4.241   1.882 -0.5499 -0.1271 -0.5983
 6270TIP3    H135382   2.385   4.268   1.923 -1.3796  1.6045 -0.0066
 6270TIP3    H235383   2.317   4.256   1.789 -0.2939  0.4527 -0.4698
 6271TIP3   OH235384   0.121   3.627   9.339  0.7283 -0.5980  0.2455
 6271TIP3    H135385   0.139   3.702   9.396  1.2158 -0.4744 -0.0633
 6271TIP3    H235386   0.077   3.665   9.263  0.8259 -0.6512  0.1630
 6272TIP3   OH235387   2.532   5.064   9.277 -0.0056 -0.1400 -0.0099
 6272TIP3    H135388   2.454   5.056   9.222  0.4800 -1.5257 -0.5407
 6272TIP3    H235389   2.540   4.979   9.320 -1.3386  1.3347  3.6460
 6273TIP3   OH235390   5.899   5.965   0.643 -0.3465  0.3816 -0.2164
 6273TIP3    H135391   5.973   5.949   0.703 -1.0150 -0.8923  0.2990
 6273TIP3    H235392   5.859   5.879   0.631 -1.3736  0.9508 -1.0015
 6274TIP3   OH235393   2.507   0.851   0.639  0.3669  0.4866 -0.1876
 6274TIP3    H135394   2.535   0.901   0.716  1.8657  1.4658 -1.3009
 6274TIP3    H235395   2.450   0.910   0.591 -0.8676 -0.2553  0.3200
 6275TIP3   OH235396   0.724   1.659   7.258  0.2849  0.4185 -0.2789
 6275TIP3    H135397   0.643   1.652   7.208  0.7349  1.4766 -1.2063
 6275TIP3    H235398   0.772   1.578   7.238  0.0189  0.3782 -0.7727
 6276TIP3   OH235399   5.762   2.640   9.234 -0.4459  0.2399  0.4305
 6276TIP3    H135400   5.725   2.707   9.177  0.9753  0.7905  0.1144
 6276TIP3    H235401   5.745   2.558   9.188 -0.0521  0.6059 -0.3941
 6277TIP3   OH235402   2.652   3.591   1.714  0.0248  0.2844 -0.3728
 6277TIP3    H135403   2.587   3.523   1.699  2.2264 -1.8986 -0.8115
 6277TIP3    H235404   2.603   3.673   1.714 -2.7334 -1.2658 -0.0676
 6278TIP3   OH235405   3.637   4.779   8.651  0.1459  0.6052  0.7268
 6278TIP3    H135406   3.624   4.686   8.668 -0.1134  0.6403  0.7310
 6278TIP3    H235407   3.560   4.805   8.600  1.7045  0.1292 -2.0758
 6279TIP3   OH235408   2.044   5.474   2.157  0.2838 -0.0315  0.7404
 6279TIP3    H135409   2.125   5.484   2.107  1.4204 -2.7592  1.8238
 6279TIP3    H235410   1.976   5.507   2.099  1.8823 -0.1214 -1.3224
 6280TIP3   OH235411   5.038   1.696   0.195 -0.6155  0.5854  0.0657
 6280TIP3    H135412   5.128   1.695   0.228 -1.9306 -0.5653  4.2430
 6280TIP3    H235413   5.026   1.612   0.151 -0.0235  0.1881  0.6645
 6281TIP3   OH235414   0.814   2.854   1.638  0.3637 -0.3368  0.1324
 6281TIP3    H135415   0.863   2.925   1.679 -0.7011  0.7781 -0.4653
 6281TIP3    H235416   0.816   2.874   1.544 -0.5024 -0.7180  0.0208
 6282TIP3   OH235417   0.803   5.422   0.073 -0.2912 -0.3249 -0.2427
 6282TIP3    H135418   0.791   5.435  -0.021 -0.1788  0.0524 -0.2087
 6282TIP3    H235419   0.829   5.331   0.082  1.5759  0.0960 -0.7835
 6283TIP3   OH235420   3.014   1.241   0.168  0.1169 -0.1686  0.1106
 6283TIP3    H135421   2.940   1.209   0.117 -0.6486  0.4589  0.8181
 6283TIP3    H235422   3.083   1.177   0.151  0.4589  0.8086 -3.0143
 6284TIP3   OH235423   3.753   2.264   7.957  0.3637 -0.7618 -0.4689
 6284TIP3    H135424   3.681   2.217   8.001  1.5990 -1.5240  0.8176
 6284TIP3    H235425   3.831   2.240   8.007  1.2214  1.8378 -0.4576
 6285TIP3   OH235426   0.644   2.453   8.927  0.1409 -0.3134  0.3660
 6285TIP3    H135427   0.567   2.426   8.978  0.3985 -1.5563  0.1233
 6285TIP3    H235428   0.638   2.402   8.846  1.6612 -1.0920  0.6973
 6286TIP3   OH235429   4.320   4.976   0.719  0.0867  0.3046  0.3316
 6286TIP3    H135430   4.236   4.974   0.763  0.5715 -0.8521  1.2739
 6286TIP3    H235431   4.369   5.046   0.762  1.0048 -1.5886  2.6291
 6287TIP3   OH235432   4.464   1.625   6.406 -0.6433 -0.1826 -0.1748
 6287TIP3    H135433   4.554   1.652   6.387 -0.6979  1.0007  1.0474
 6287TIP3    H235434   4.410   1.687   6.357 -0.7708  0.0308  0.2253
 6288TIP3   OH235435   3.355   4.645   8.887  0.1017 -0.0663 -0.0461
 6288TIP3    H135436   3.406   4.603   8.818  1.5206 -1.5769  1.8141
 6288TIP3    H235437   3.307   4.574   8.929 -2.8310  1.1816 -1.0583
 6289TIP3   OH235438   4.245   4.453   6.977 -0.0783 -0.1938 -0.0698
 6289TIP3    H135439   4.213   4.402   6.902  0.8251 -0.3138 -0.3781
 6289TIP3    H235440   4.307   4.514   6.940 -0.1933  0.2688  0.4875
 6290TIP3   OH235441   4.918   0.830   1.687 -0.2633  0.4304  0.9712
 6290TIP3    H135442   4.913   0.737   1.666  0.1832  0.0937  2.2387
 6290TIP3    H235443   5.006   0.842   1.723 -0.4362  1.2623  1.1453
 6291TIP3   OH235444   2.441   2.805   2.484  0.1713 -0.7558  0.5178
 6291TIP3    H135445   2.480   2.871   2.541 -0.0530 -2.1360  2.3414
 6291TIP3    H235446   2.348   2.807   2.507  0.0821 -1.3397  0.2078
 6292TIP3   OH235447   4.044   4.434   7.412  0.1894  0.0908 -0.0360
 6292TIP3    H135448   4.022   4.483   7.491 -1.5246 -0.5835 -0.0642
 6292TIP3    H235449   4.001   4.482   7.341 -0.3718 -0.6695 -0.2296
 6293TIP3   OH235450   4.481   0.297   8.127  0.6964  0.3889 -0.1329
 6293TIP3    H135451   4.558   0.275   8.180 -0.7301  0.6383  2.1405
 6293TIP3    H235452   4.446   0.212   8.100  0.9371  0.2224  0.0734
 6294TIP3   OH235453   2.127   1.956   7.655 -0.2783 -0.7611  0.0192
 6294TIP3    H135454   2.164   1.974   7.742 -0.7163  2.5948 -0.3425
 6294TIP3    H235455   2.033   1.951   7.670 -0.5301  1.5242 -0.3533
 6295TIP3   OH235456   2.176   4.208   6.665  0.4179  0.2516 -0.1565
 6295TIP3    H135457   2.125   4.129   6.680  2.1023 -0.5353  1.8467
 6295TIP3    H235458   2.138   4.246   6.586 -1.6789 -1.5185 -0.0994
 6296TIP3   OH235459   4.170   5.078   8.425 -0.4274  0.7484  0.2272
 6296TIP3    H135460   4.234   5.073   8.495 -0.5580  1.5961  0.4250
 6296TIP3    H235461   4.088   5.047   8.464 -0.4068  0.8297  0.3364
 6297TIP3   OH235462   5.001   5.145   1.135  0.2870  0.6057 -0.1786
 6297TIP3    H135463   5.033   5.121   1.222  0.7070  2.4352  0.2250
 6297TIP3    H235464   5.079   5.178   1.089  0.2387 -1.0721 -1.5725
 6298TIP3   OH235465   1.454   1.191   6.966  0.5542 -0.0739 -0.0957
 6298TIP3    H135466   1.547   1.197   6.943  0.7957  0.9334  1.0529
 6298TIP3    H235467   1.408   1.229   6.891  1.2109  1.5279  0.2951
 6299TIP3   OH235468   3.558   5.133   6.957  0.2802 -0.0316  0.5521
 6299TIP3    H135469   3.470   5.100   6.976  0.6923 -1.1690  0.5882
 6299TIP3    H235470   3.552   5.227   6.971 -1.2349  0.0746 -0.6258
 6300TIP3   OH235471   4.384   1.898   7.198 -0.7741 -0.4273 -0.0657
 6300TIP3    H135472   4.437   1.960   7.248 -0.6118 -1.9268  1.7690
 6300TIP3    H235473   4.294   1.923   7.219 -0.7132 -0.6021  0.4308
 6301TIP3   OH235474   5.277   3.587   8.876  0.3911 -0.4937  0.3445
 6301TIP3    H135475   5.291   3.568   8.968 -0.4243  1.2141  0.8690
 6301TIP3    H235476   5.254   3.680   8.874 -0.2567 -0.6464 -1.5100
 6302TIP3   OH235477   3.813   0.203   0.524  0.2245 -0.6574 -0.0866
 6302TIP3    H135478   3.828   0.110   0.539  2.2608 -0.6190 -1.4058
 6302TIP3    H235479   3.751   0.207   0.452  0.5813 -1.0290 -0.4205
 6303TIP3   OH235480   0.580   0.389   7.296  0.9480  0.2170 -0.3678
 6303TIP3    H135481   0.642   0.406   7.226  1.2093  2.0928  0.2615
 6303TIP3    H235482   0.575   0.471   7.344 -2.1494  0.2155 -0.4885
 6304TIP3   OH235483   5.162   0.405   8.944 -0.7585  0.0107 -0.5612
 6304TIP3    H135484   5.138   0.360   9.025  0.1239  1.7942  0.7863
 6304TIP3    H235485   5.183   0.335   8.882  0.3629 -1.4249  1.3302
 6305TIP3   OH235486   5.147   2.310   8.546  0.0635  0.5494 -0.7188
 6305TIP3    H135487   5.139   2.316   8.451  0.6856 -0.8912 -0.8916
 6305TIP3    H235488   5.184   2.394   8.573 -2.6524  2.0993 -1.3880
 6306TIP3   OH235489   3.168   4.347   7.077 -0.2866 -0.2567 -0.2164
 6306TIP3    H135490   3.250   4.380   7.114 -0.2135 -0.8637  0.1658
 6306TIP3    H235491   3.195   4.306   6.994 -0.0487 -1.3377  0.3787
 6307TIP3   OH235492   6.209   3.940   2.644 -0.3782 -0.5126  0.3289
 6307TIP3    H135493   6.283   3.993   2.674 -0.3870 -0.0469 -0.4423
 6307TIP3    H235494   6.156   3.927   2.722 -0.4442  0.7322  0.5170
 6308TIP3   OH235495   1.753   6.016   2.698  0.0437  0.2394 -0.1799
 6308TIP3    H135496   1.843   6.006   2.730  0.3644  0.4589 -0.9997
 6308TIP3    H235497   1.756   5.985   2.608 -0.6340  0.5878 -0.3287
 6309TIP3   OH235498   5.821   4.945   2.283  0.4819 -1.1223 -0.2180
 6309TIP3    H135499   5.844   5.003   2.355  0.1924 -0.6446 -0.5000
 6309TIP3    H235500   5.732   4.915   2.304 -1.0689  1.7300 -2.0015
 6310TIP3   OH235501   3.501   2.040   0.937  0.0589  0.4490 -0.0437
 6310TIP3    H135502   3.446   1.965   0.914 -0.2541  0.5700  0.3004
 6310TIP3    H235503   3.446   2.093   0.995  0.3318  0.8674 -0.1635
 6311TIP3   OH235504   0.544   2.382   7.837  0.2118  0.2539 -0.1788
 6311TIP3    H135505   0.555   2.459   7.782  0.2665  0.4907  0.1562
 6311TIP3    H235506   0.599   2.315   7.797 -1.1518 -0.1487 -1.4560
 6312TIP3   OH235507   0.723   6.333   9.066 -0.2663 -0.2570  0.1931
 6312TIP3    H135508   0.670   6.409   9.041 -0.7764 -0.5441  0.4020
 6312TIP3    H235509   0.813   6.367   9.071 -0.6896  0.6877  1.8009
 6313TIP3   OH235510   0.958   3.860   8.369 -0.5812  0.5337  0.0900
 6313TIP3    H135511   1.034   3.917   8.365 -0.9222  1.0482  0.7373
 6313TIP3    H235512   0.916   3.870   8.284 -0.6791  1.3106  0.2240
 6314TIP3   OH235513   1.051   6.113   8.324 -0.4631  0.2048  0.4421
 6314TIP3    H135514   1.132   6.089   8.369 -0.2266 -0.0850 -0.1172
 6314TIP3    H235515   1.078   6.123   8.232 -0.3459  3.5574  0.7463
 6315TIP3   OH235516   2.030   5.451   7.711  0.4676 -0.0057  0.2742
 6315TIP3    H135517   1.990   5.364   7.716  0.9081 -0.2694 -0.5805
 6315TIP3    H235518   1.973   5.506   7.764 -2.1379  0.0280 -2.2940
 6316TIP3   OH235519   6.094   1.361   0.603  0.0508 -0.0756 -0.0327
 6316TIP3    H135520   6.032   1.304   0.649 -0.0682 -1.8510 -2.2323
 6316TIP3    H235521   6.178   1.315   0.611  0.3081  0.3419 -0.3286
 6317TIP3   OH235522   0.998   5.797   7.508 -0.2896  0.5286 -0.1125
 6317TIP3    H135523   1.028   5.770   7.595 -1.8443 -2.6371 -0.4384
 6317TIP3    H235524   0.912   5.835   7.523 -0.4804  0.1485 -0.2390
 6318TIP3   OH235525   2.976   4.918   8.528 -0.2073 -0.3684  0.5378
 6318TIP3    H135526   2.999   4.838   8.575 -0.1202 -0.0749  1.0015
 6318TIP3    H235527   2.931   4.887   8.449  1.5417 -0.9457 -0.2749
 6319TIP3   OH235528   3.671   2.724   9.221  0.2177  0.2323 -0.1615
 6319TIP3    H135529   3.652   2.682   9.305  1.9973 -1.0978 -0.3781
 6319TIP3    H235530   3.608   2.685   9.161  1.2941 -1.5712 -0.1796
 6320TIP3   OH235531   5.103   6.084   2.936 -0.0067 -0.7126  0.2974
 6320TIP3    H135532   5.009   6.083   2.956  0.0430 -0.5631  0.5357
 6320TIP3    H235533   5.120   5.997   2.899 -0.2718 -0.6823  0.0994
 6321TIP3   OH235534   6.193   0.375   7.220  0.2561 -0.5218 -0.3780
 6321TIP3    H135535   6.165   0.327   7.142 -1.0033 -0.3131 -0.0883
 6321TIP3    H235536   6.257   0.438   7.188 -0.2094 -0.4712 -1.2490
 6322TIP3   OH235537   3.432   5.248   9.228  0.1136  0.3611 -0.1371
 6322TIP3    H135538   3.371   5.235   9.301 -1.2409  1.8283 -0.9476
 6322TIP3    H235539   3.472   5.163   9.215 -1.1098 -0.4330  1.0291
 6323TIP3   OH235540   3.820   1.181   1.729  0.3936  0.3188 -0.1118
 6323TIP3    H135541   3.796   1.094   1.698 -0.8717  0.0889  1.4154
 6323TIP3    H235542   3.802   1.239   1.655 -0.7783 -0.4469 -0.4337
 6324TIP3   OH235543   0.529   1.564   2.454  0.4305  0.2112  0.0035
 6324TIP3    H135544   0.586   1.493   2.424 -0.4600 -0.6377  0.2669
 6324TIP3    H235545   0.525   1.555   2.549  1.3054  1.4049  0.1822
 6325TIP3   OH235546   3.973   4.851   1.646  0.1361 -0.7702  0.0502
 6325TIP3    H135547   4.019   4.823   1.725  1.1902  1.0570  0.1500
 6325TIP3    H235548   4.008   4.795   1.577  1.5639 -0.3146  0.3724
 6326TIP3   OH235549   5.324   5.269   7.735  0.2335  0.2562 -0.1031
 6326TIP3    H135550   5.344   5.321   7.657  1.4000  0.1004  0.0834
 6326TIP3    H235551   5.231   5.287   7.752 -0.2465 -0.2943 -1.9602
 6327TIP3   OH235552   2.286   1.687   2.009 -0.0703  0.1791 -0.6321
 6327TIP3    H135553   2.305   1.608   1.959 -1.7017  0.9378 -2.6433
 6327TIP3    H235554   2.192   1.683   2.026 -0.3674  2.0396 -1.5486
 6328TIP3   OH235555   4.229   3.670   8.758 -0.3133 -0.1056  0.6444
 6328TIP3    H135556   4.241   3.593   8.813 -0.5359  0.3973  1.4044
 6328TIP3    H235557   4.149   3.711   8.790 -0.5495  0.0977 -0.1766
 6329TIP3   OH235558   1.462   2.015   1.135 -0.7311  0.7308 -0.0748
 6329TIP3    H135559   1.524   1.944   1.150 -0.9260  0.0442 -2.2566
 6329TIP3    H235560   1.376   1.975   1.148 -0.8193  0.7400 -0.6141
 6330TIP3   OH235561   5.002   5.904   0.162  0.2698  0.2507  0.1716
 6330TIP3    H135562   4.929   5.945   0.208 -0.2993  0.0655 -0.5465
 6330TIP3    H235563   5.007   5.815   0.199 -0.4649 -0.0446 -0.4128
 6331TIP3   OH235564   3.844   3.630   8.489  0.4154 -0.5383 -0.2370
 6331TIP3    H135565   3.820   3.651   8.399  1.8781  1.4548 -0.2390
 6331TIP3    H235566   3.783   3.680   8.543  1.0150  0.1516 -0.1799
 6332TIP3   OH235567   5.271   6.015   0.120 -0.0298 -0.0514  0.3158
 6332TIP3    H135568   5.266   6.094   0.174 -0.8284 -1.8275  3.0651
 6332TIP3    H235569   5.190   5.969   0.138  1.7245 -2.9867  1.3971
 6333TIP3   OH235570   4.077   0.841   1.811 -0.1382  0.0564 -0.1689
 6333TIP3    H135571   4.081   0.755   1.852  0.7548 -1.2277 -2.6956
 6333TIP3    H235572   4.158   0.885   1.838  0.1500 -0.5293 -0.0597
 6334TIP3   OH235573   4.565   5.967   2.223  0.4808  0.7482  0.1587
 6334TIP3    H135574   4.578   5.873   2.211  1.6552  0.8926  0.1713
 6334TIP3    H235575   4.474   5.976   2.251 -0.0995 -0.2510 -1.2974
 6335TIP3   OH235576   2.361   6.357   6.400  0.2931  0.9371  0.5000
 6335TIP3    H135577   2.436   6.299   6.413 -0.4997 -0.1865  0.2964
 6335TIP3    H235578   2.393   6.444   6.423  2.0690  0.7341 -0.9895
 6336TIP3   OH235579   4.968   0.356   1.530  0.2454 -0.0765 -0.0791
 6336TIP3    H135580   4.898   0.294   1.511 -0.1605  0.6774 -1.1750
 6336TIP3    H235581   5.049   0.306   1.519 -0.0922 -0.8491  0.8112
 6337TIP3   OH235582   1.635   0.078   3.513  0.0546  0.2177  0.2449
 6337TIP3    H135583   1.716   0.034   3.490  0.4184  1.6014 -1.3013
 6337TIP3    H235584   1.566   0.023   3.474  0.3350 -0.2454  0.3989
 6338TIP3   OH235585   0.161   5.208   0.790  0.1132  0.7625  0.2618
 6338TIP3    H135586   0.229   5.271   0.813  1.6361 -0.6215 -0.2149
 6338TIP3    H235587   0.182   5.131   0.843 -2.7174  1.1455  2.1757
 6339TIP3   OH235588   1.725   3.160   9.134  0.0606 -0.4672 -0.7287
 6339TIP3    H135589   1.649   3.193   9.182 -0.5152 -1.5934 -0.8476
 6339TIP3    H235590   1.791   3.229   9.145 -0.9496  0.5209 -0.5945
 6340TIP3   OH235591   2.256   4.472   7.215 -0.1913  0.5510  0.0286
 6340TIP3    H135592   2.219   4.546   7.262  0.8171  1.9418 -1.2887
 6340TIP3    H235593   2.192   4.453   7.146  0.2518  1.2160 -0.5816
 6341TIP3   OH235594   4.653   4.821   7.841  0.3938  0.1429  0.6569
 6341TIP3    H135595   4.741   4.809   7.807  0.4512 -0.7943  1.1078
 6341TIP3    H235596   4.664   4.880   7.915  0.5979  0.2673  0.5293
 6342TIP3   OH235597   3.844   2.982   0.384 -0.1498 -0.3719  0.1053
 6342TIP3    H135598   3.918   3.008   0.439 -0.5580 -1.2581  1.1012
 6342TIP3    H235599   3.787   3.059   0.384  0.4684  0.0935 -0.1500
 6343TIP3   OH235600   4.115   5.978   2.963 -0.4526 -0.4509 -0.0876
 6343TIP3    H135601   4.040   5.961   3.021 -1.6901  2.1345 -0.8011
 6343TIP3    H235602   4.168   6.042   3.010  0.0167 -0.4403 -0.6208
 6344TIP3   OH235603   0.819   4.270   1.399  0.2640 -0.3152 -0.4145
 6344TIP3    H135604   0.753   4.318   1.448  1.3778  2.6675 -1.6139
 6344TIP3    H235605   0.872   4.227   1.466 -1.9073 -1.5334  0.6138
 6345TIP3   OH235606   1.177   1.905   1.654 -0.1933  0.7719 -0.4211
 6345TIP3    H135607   1.266   1.914   1.689 -0.3603  0.2773  0.1452
 6345TIP3    H235608   1.190   1.894   1.560  0.5167 -1.4039 -0.1283
 6346TIP3   OH235609   4.760   2.301   7.174 -0.0855  0.4975  0.1790
 6346TIP3    H135610   4.808   2.274   7.096  0.1350  0.4944  0.3154
 6346TIP3    H235611   4.674   2.328   7.141 -0.5073 -0.8537  0.0791
 6347TIP3   OH235612   0.960   0.450   9.089  0.1605  0.4461 -0.0740
 6347TIP3    H135613   0.983   0.460   9.181  0.8771 -0.4621 -0.1342
 6347TIP3    H235614   0.877   0.402   9.090  0.6653 -0.4588  0.1122
 6348TIP3   OH235615   1.900   5.644   8.515  0.1606 -0.1250  0.1026
 6348TIP3    H135616   1.891   5.738   8.502  0.5558 -0.2975 -1.6393
 6348TIP3    H235617   1.982   5.633   8.564  0.8431  0.3587 -0.9181
 6349TIP3   OH235618   0.654   1.416   7.707  0.0238 -1.0907  0.2893
 6349TIP3    H135619   0.740   1.404   7.747 -0.2696 -0.8328  0.9955
 6349TIP3    H235620   0.601   1.456   7.775 -0.2213  0.2340 -0.6564
 6350TIP3   OH235621   2.139   0.550   7.396  0.6168 -0.1028  0.0080
 6350TIP3    H135622   2.075   0.621   7.404 -0.9095 -1.3962 -0.2426
 6350TIP3    H235623   2.140   0.530   7.302  0.5831 -0.7953  0.1540
 6351TIP3   OH235624   3.555   4.303   9.130  0.1691 -0.0159 -0.1350
 6351TIP3    H135625   3.552   4.229   9.069  0.7220 -1.9797  2.0851
 6351TIP3    H235626   3.634   4.351   9.106  0.7778 -1.1693 -0.5088
 6352TIP3   OH235627   4.535   3.686   2.209  0.0400 -0.3332 -0.3135
 6352TIP3    H135628   4.448   3.648   2.217 -1.0773  1.7368 -1.8414
 6352TIP3    H235629   4.583   3.626   2.152 -0.7052 -0.9808 -0.2630
 6353TIP3   OH235630   4.364   4.297   1.766  0.1389  0.5279 -0.0241
 6353TIP3    H135631   4.328   4.213   1.735  1.9647 -1.1354  2.0215
 6353TIP3    H235632   4.365   4.289   1.861  2.5829  1.8550  0.1461
 6354TIP3   OH235633   5.383   0.146   8.305  0.3254  0.3601 -0.7282
 6354TIP3    H135634   5.426   0.225   8.339  0.2894  0.8146 -1.7090
 6354TIP3    H235635   5.389   0.155   8.210  1.0411 -1.2122 -0.8565
 6355TIP3   OH235636   4.287   0.628   6.566 -0.4342 -0.3723 -0.1329
 6355TIP3    H135637   4.323   0.604   6.480 -0.7877  0.7030 -0.5993
 6355TIP3    H235638   4.225   0.698   6.547  1.6147  2.0116  1.2755
 6356TIP3   OH235639   0.736   4.681   0.344  0.2753 -0.1498  0.2316
 6356TIP3    H135640   0.798   4.633   0.290  0.6593  0.4772  0.1090
 6356TIP3    H235641   0.785   4.757   0.376 -0.3990  0.3100  0.1934
 6357TIP3   OH235642   3.219   6.209   0.368  0.0898  0.2006  0.0966
 6357TIP3    H135643   3.239   6.153   0.444 -2.7171 -1.0396  0.0360
 6357TIP3    H235644   3.133   6.180   0.339 -0.7159  3.3890 -1.0967
 6358TIP3   OH235645   5.380   0.145   0.427  0.2877  0.0214 -0.2300
 6358TIP3    H135646   5.312   0.139   0.493  1.5041 -1.5228  0.9672
 6358TIP3    H235647   5.409   0.236   0.429  0.7651 -0.1456  1.8764
 6359TIP3   OH235648   3.863   5.675   1.001  0.1213 -0.2263  0.0995
 6359TIP3    H135649   3.930   5.738   1.027  0.6112 -0.5976 -0.2237
 6359TIP3    H235650   3.780   5.718   1.021  0.3227  1.7212 -2.6784
 6360TIP3   OH235651   4.600   1.676   0.414  0.2063 -0.5853  0.2093
 6360TIP3    H135652   4.649   1.657   0.335 -2.2388  1.8356 -2.1109
 6360TIP3    H235653   4.667   1.693   0.480  2.6410  2.0276 -2.6002
 6361TIP3   OH235654   5.970   1.738   9.214 -0.5550 -0.5618 -0.2271
 6361TIP3    H135655   6.056   1.709   9.245  0.1841 -0.8862 -2.4262
 6361TIP3    H235656   5.917   1.746   9.294  1.3389 -0.8995  1.1213
 6362TIP3   OH235657   0.826   5.303   1.447  0.1168 -0.4465  0.0539
 6362TIP3    H135658   0.767   5.255   1.390  0.0163 -0.5437  0.2374
 6362TIP3    H235659   0.843   5.385   1.402 -0.5839 -0.1910  0.2537
 6363TIP3   OH235660   2.242   1.749   7.509 -0.3711  0.5213 -0.6104
 6363TIP3    H135661   2.331   1.727   7.536 -0.2717  0.3481 -1.0685
 6363TIP3    H235662   2.225   1.834   7.549 -0.0648  0.4741 -0.3740
 6364TIP3   OH235663   0.120   4.584   8.271  0.0523  0.2537 -0.3070
 6364TIP3    H135664   0.043   4.531   8.248 -0.1864  0.9376 -1.1273
 6364TIP3    H235665   0.085   4.663   8.311  0.3459  0.3965 -0.3246
 6365TIP3   OH235666   3.232   2.279   2.961  0.0265 -0.0969 -0.1970
 6365TIP3    H135667   3.314   2.235   2.985 -0.5689 -1.0442  0.1715
 6365TIP3    H235668   3.254   2.372   2.959  0.9072 -0.2658  0.7384
 6366TIP3   OH235669   5.966   5.855   8.401 -0.2549  0.5000 -0.0883
 6366TIP3    H135670   6.017   5.789   8.356  0.6494  1.1338 -0.0130
 6366TIP3    H235671   6.028   5.925   8.422 -1.2228  1.5048 -0.4051
 6367TIP3   OH235672   3.238   0.865   0.915 -0.5484  0.3615  0.4884
 6367TIP3    H135673   3.200   0.799   0.973 -0.9333 -1.1728 -1.4214
 6367TIP3    H235674   3.260   0.938   0.974 -0.3217 -1.3295  2.6420
 6368TIP3   OH235675   1.149   5.919   2.928 -0.2733 -0.1697  0.2754
 6368TIP3    H135676   1.227   5.863   2.932  0.4185  0.8112  1.8866
 6368TIP3    H235677   1.177   5.996   2.879 -0.9689 -0.8043 -1.1843
 6369TIP3   OH235678   4.326   1.585   7.986 -0.6345  0.0583  0.1064
 6369TIP3    H135679   4.234   1.577   7.962 -1.4588  4.8816  0.7497
 6369TIP3    H235680   4.336   1.528   8.062 -3.3820  0.2081  0.6653
 6370TIP3   OH235681   1.387   4.396   7.072  0.3538 -0.1885  0.1894
 6370TIP3    H135682   1.322   4.425   7.007  0.1883 -1.5194 -0.2630
 6370TIP3    H235683   1.369   4.303   7.084  1.9203 -0.4869  0.3735
 6371TIP3   OH235684   6.107   0.438   8.288  0.1754 -0.2154 -0.2765
 6371TIP3    H135685   6.066   0.472   8.367 -0.8027  0.2372 -0.9553
 6371TIP3    H235686   6.192   0.482   8.284  0.1785 -0.1482  0.4448
 6372TIP3   OH235687   3.994   2.654   1.281 -0.5518 -0.0751  0.0757
 6372TIP3    H135688   3.920   2.599   1.252 -0.2791  0.2358 -1.2498
 6372TIP3    H235689   4.070   2.616   1.238 -0.3719  1.4103 -0.9682
 6373TIP3   OH235690   2.602   0.684   1.322  0.0201 -0.4199 -0.5422
 6373TIP3    H135691   2.526   0.694   1.265 -0.2737  1.0426  0.0525
 6373TIP3    H235692   2.567   0.646   1.403 -0.2873  1.1056  0.0785
 6374TIP3   OH235693   5.448   6.349   2.174  0.4400 -0.1517  0.1672
 6374TIP3    H135694   5.382   6.303   2.123  1.1878 -0.3751 -0.6290
 6374TIP3    H235695   5.425   6.442   2.166 -0.5766 -0.3147  1.0674
 6375TIP3   OH235696   2.920   1.215   2.460  0.6606  0.0116  0.0208
 6375TIP3    H135697   3.008   1.216   2.423  1.1021 -3.0161  0.6682
 6375TIP3    H235698   2.934   1.223   2.555  0.2148 -0.1503  0.1040
 6376TIP3   OH235699   0.702   3.071   0.105  0.5460 -0.2713  0.2822
 6376TIP3    H135700   0.632   3.134   0.123  1.2746  0.6562 -0.0883
 6376TIP3    H235701   0.754   3.069   0.185  0.1113 -0.9510  0.5525
 6377TIP3   OH235702   3.179   0.063   2.427 -0.1212  0.0897  0.0270
 6377TIP3    H135703   3.273   0.049   2.435 -0.4723 -1.5694  4.0040
 6377TIP3    H235704   3.160   0.134   2.488 -1.4379  0.5161 -0.8426
 6378TIP3   OH235705   2.099   5.307   1.487  0.0825  0.1644  0.2775
 6378TIP3    H135706   2.030   5.294   1.552 -0.5921 -0.8203 -0.6160
 6378TIP3    H235707   2.063   5.273   1.405  0.9442  1.3145 -0.6128
 6379TIP3   OH235708   5.078   1.497   7.841  0.4353  0.2536 -0.2314
 6379TIP3    H135709   5.132   1.470   7.916 -0.2286 -1.0192 -0.1825
 6379TIP3    H235710   4.990   1.467   7.863 -0.3916  2.5351 -0.1871
 6380TIP3   OH235711   4.450   2.606   6.926  0.5503 -0.1817 -0.0449
 6380TIP3    H135712   4.530   2.568   6.889  0.0773 -2.7634  1.3663
 6380TIP3    H235713   4.379   2.568   6.874  0.1141 -0.3981  0.6913
 6381TIP3   OH235714   5.480   1.541   2.808 -0.1736  0.0580  0.2360
 6381TIP3    H135715   5.511   1.474   2.869  0.9607 -0.3165 -0.7232
 6381TIP3    H235716   5.560   1.586   2.780 -0.4838 -0.7074 -2.0613
 6382TIP3   OH235717   3.474   4.423   2.385  0.5428  0.0290 -0.2864
 6382TIP3    H135718   3.503   4.409   2.295 -0.8439  1.1137 -0.9256
 6382TIP3    H235719   3.485   4.516   2.400  1.4005 -0.2391  0.9240
 6383TIP3   OH235720   4.771   5.275   7.240  0.5295 -0.2930  0.1465
 6383TIP3    H135721   4.676   5.279   7.249  0.7162  0.3462  2.7783
 6383TIP3    H235722   4.791   5.336   7.169 -1.0491 -0.9551 -0.9186
 6384TIP3   OH235723   0.735   0.275   9.203  0.0096 -0.3422 -0.4982
 6384TIP3    H135724   0.706   0.204   9.146  1.0630  0.8678 -2.6753
 6384TIP3    H235725   0.684   0.351   9.174 -2.3898 -0.4106  2.9333
 6385TIP3   OH235726   5.746   4.953   8.133  0.1063 -1.0760  0.1376
 6385TIP3    H135727   5.829   4.975   8.174 -1.6477  0.1869  3.3932
 6385TIP3    H235728   5.736   4.859   8.147  1.3652 -1.4719 -1.2717
 6386TIP3   OH235729   2.791   0.569   9.052  0.9851 -0.1876 -0.1331
 6386TIP3    H135730   2.886   0.578   9.055  0.8209  1.6996  1.7422
 6386TIP3    H235731   2.764   0.563   9.144 -0.7584 -0.0033 -0.5865
 6387TIP3   OH235732   1.224   4.148   6.305 -0.3575 -0.1509 -0.5803
 6387TIP3    H135733   1.252   4.112   6.220  1.8720  0.9374 -0.3770
 6387TIP3    H235734   1.191   4.072   6.353 -2.1603 -0.7338 -2.5300
 6388TIP3   OH235735   0.050   0.463   9.113  0.3431 -0.0450  0.1403
 6388TIP3    H135736  -0.034   0.503   9.132  0.1158 -0.6858  0.5312
 6388TIP3    H235737   0.115   0.531   9.133  0.0499 -0.2787  2.0860
 6389TIP3   OH235738   5.791   1.622   0.797 -0.0470  0.6695 -0.6301
 6389TIP3    H135739   5.751   1.633   0.883 -0.2306  0.2604 -0.6603
 6389TIP3    H235740   5.779   1.706   0.754 -0.1393  0.8104 -0.3324
 6390TIP3   OH235741   5.067   5.339   9.291 -0.2148  0.0479 -0.2238
 6390TIP3    H135742   5.046   5.335   9.384  0.4331 -0.3306 -0.0911
 6390TIP3    H235743   5.018   5.415   9.259 -2.2128 -1.0802 -0.0375
 6391TIP3   OH235744   5.891   4.590   0.172  0.0251 -0.0620 -0.0167
 6391TIP3    H135745   5.845   4.613   0.092  1.1782  0.0504 -0.6702
 6391TIP3    H235746   5.827   4.542   0.224 -1.9608  2.9841  0.6421
 6392TIP3   OH235747   1.491   4.611   2.304  0.4330  0.1476 -0.2934
 6392TIP3    H135748   1.524   4.599   2.215  3.3486  0.5740  0.6198
 6392TIP3    H235749   1.513   4.530   2.349 -0.8560  0.0074  0.1094
 6393TIP3   OH235750   0.106   5.511   0.870  0.1871  0.5679 -0.4473
 6393TIP3    H135751   0.161   5.496   0.792 -0.9786  3.4761 -1.9871
 6393TIP3    H235752   0.164   5.558   0.930  0.7758 -0.7358  0.0386
 6394TIP3   OH235753   4.316   0.650   7.434 -0.3095 -0.0881 -0.0922
 6394TIP3    H135754   4.268   0.673   7.513  0.1087  2.2498 -0.4540
 6394TIP3    H235755   4.327   0.733   7.387  1.8365 -0.9537 -1.2690
 6395TIP3   OH235756   1.864   5.473   9.212  0.4424  0.1227 -0.0142
 6395TIP3    H135757   1.930   5.536   9.241 -0.0761  0.2905  0.8132
 6395TIP3    H235758   1.825   5.440   9.292 -1.8088  1.4405 -0.4668
 6396TIP3   OH235759   2.430   2.813   7.828  0.0845  0.1473  0.1760
 6396TIP3    H135760   2.439   2.721   7.804  1.9041 -0.4856  2.9043
 6396TIP3    H235761   2.434   2.814   7.923 -0.9218  3.0007  0.2907
 6397TIP3   OH235762   2.865   4.609   9.335  0.2389 -0.0619 -0.4492
 6397TIP3    H135763   2.841   4.574   9.249  0.7742 -1.4210 -0.0748
 6397TIP3    H235764   2.786   4.598   9.388 -0.2180  1.1318 -0.8382
 6398TIP3   OH235765   5.015   4.504   0.276 -0.3446 -0.1300  0.7496
 6398TIP3    H135766   4.947   4.570   0.270  1.0276  1.2366 -0.7980
 6398TIP3    H235767   4.995   4.442   0.205 -1.2669 -1.0448  1.7889
 6399TIP3   OH235768   3.241   0.142   7.593  0.1121 -0.3823 -0.6144
 6399TIP3    H135769   3.149   0.161   7.611 -0.0429 -0.7978 -0.9455
 6399TIP3    H235770   3.290   0.195   7.656 -0.3853 -1.5978  0.8439
 6400TIP3   OH235771   5.652   2.036   0.542 -0.3780 -0.2250 -0.0129
 6400TIP3    H135772   5.719   2.104   0.540  0.1996 -0.7179  1.3826
 6400TIP3    H235773   5.595   2.056   0.468 -0.8986  2.4451  1.0061
 6401TIP3   OH235774   4.995   0.357   0.298  0.5718  0.4236  0.5707
 6401TIP3    H135775   5.028   0.370   0.387 -0.2406  1.4619  0.7388
 6401TIP3    H235776   4.922   0.296   0.308  1.9443 -1.3554  0.2807
 6402TIP3   OH235777   0.925   0.509   7.569  0.1960 -0.4211 -0.3242
 6402TIP3    H135778   0.999   0.566   7.590 -0.5140  0.0785  0.9598
 6402TIP3    H235779   0.959   0.420   7.577  0.5445 -0.2046  0.7844
 6403TIP3   OH235780   3.904   3.707   8.039  0.3265 -0.7003  0.0669
 6403TIP3    H135781   3.906   3.628   8.093  2.8421 -2.2021 -2.0057
 6403TIP3    H235782   3.814   3.711   8.006  0.0143 -2.4315  0.5991
 6404TIP3   OH235783   5.142   2.548   7.802 -0.2565 -0.0589 -0.3764
 6404TIP3    H135784   5.234   2.545   7.773 -0.4736  0.6805 -1.1729
 6404TIP3    H235785   5.147   2.561   7.896  0.4631 -0.0779 -0.4051
 6405TIP3   OH235786   3.426   2.405   7.325 -0.6052  0.1868  0.7507
 6405TIP3    H135787   3.396   2.395   7.415  0.1671 -0.7871  0.9064
 6405TIP3    H235788   3.348   2.390   7.272 -0.8300 -0.3199  1.2224
 6406TIP3   OH235789   0.611   0.677   1.067 -0.5849  0.2197 -0.0394
 6406TIP3    H135790   0.650   0.750   1.115 -2.0146  0.3653  0.9719
 6406TIP3    H235791   0.667   0.602   1.087 -0.6102  0.4882  1.0903
 6407TIP3   OH235792   0.517   1.243   1.998 -0.1620 -0.3043 -0.0889
 6407TIP3    H135793   0.501   1.184   1.924 -0.9458  1.1664 -1.1485
 6407TIP3    H235794   0.438   1.238   2.051  0.4697 -1.4909  0.7764
 6408TIP3   OH235795   5.074   1.447   7.157  0.3898 -0.3467  0.1761
 6408TIP3    H135796   5.043   1.372   7.207  2.0256 -1.8475 -0.9390
 6408TIP3    H235797   5.158   1.419   7.121  1.9642  2.6200  1.1187
 6409TIP3   OH235798   3.741   5.379   8.783 -0.1639 -0.2688  0.0949
 6409TIP3    H135799   3.748   5.474   8.780  0.0502 -0.3065 -0.8023
 6409TIP3    H235800   3.831   5.348   8.786 -0.2380 -0.4426  0.9735
 6410TIP3   OH235801   1.633   4.530   7.988 -0.5929 -0.6640 -0.0408
 6410TIP3    H135802   1.652   4.448   7.943 -1.0956 -1.4733  1.1448
 6410TIP3    H235803   1.716   4.576   7.991  0.3870 -2.3659  1.6072
 6411TIP3   OH235804   1.800   6.303   9.217  0.2592 -0.2370 -0.5632
 6411TIP3    H135805   1.887   6.288   9.178  0.0262  0.4760 -1.3969
 6411TIP3    H235806   1.797   6.397   9.234  0.0263 -0.4138  0.4212
 6412TIP3   OH235807   6.027   1.931   0.721  1.0649  0.0004 -0.7391
 6412TIP3    H135808   6.039   1.853   0.667  0.7984  0.1441 -1.0081
 6412TIP3    H235809   5.934   1.931   0.744  1.1850 -0.0871 -0.2333
 6413TIP3   OH235810   4.570   4.921   0.093  0.1389 -0.4001 -0.1451
 6413TIP3    H135811   4.487   4.916   0.045  0.4235  1.9376 -1.0333
 6413TIP3    H235812   4.545   4.955   0.179  0.2443  1.5873 -0.8509
 6414TIP3   OH235813   2.665   3.899   9.099 -0.4667  0.4466  1.1669
 6414TIP3    H135814   2.712   3.858   9.172  0.4522 -0.7527 -0.0431
 6414TIP3    H235815   2.635   3.826   9.046 -1.5742  1.2830  0.6011
 6415TIP3   OH235816   5.422   6.085   9.298 -0.1052  0.1640  0.2906
 6415TIP3    H135817   5.373   6.036   9.365 -1.1196 -2.2761 -2.0339
 6415TIP3    H235818   5.381   6.059   9.216  2.1041  1.8053 -1.4348
 6416TIP3   OH235819   2.736   1.745   0.284  0.4392 -0.5300  0.4440
 6416TIP3    H135820   2.692   1.663   0.264  1.2556 -1.4962  2.3671
 6416TIP3    H235821   2.669   1.798   0.327  0.2208 -0.6193  0.2165
 6417TIP3   OH235822   6.255   0.040   7.735  0.3952 -0.2479  0.4092
 6417TIP3    H135823   6.249   0.134   7.747 -4.0642 -0.4174  1.0850
 6417TIP3    H235824   6.301   0.029   7.651 -1.3839  2.6821 -1.1137
 6418TIP3   OH235825   4.040   1.206   0.404  0.1714 -0.1039  0.1432
 6418TIP3    H135826   3.976   1.135   0.410 -0.6125  0.5999  0.3294
 6418TIP3    H235827   4.024   1.260   0.482 -0.3179  1.1336 -0.7721
 6419TIP3   OH235828   2.789   2.501  -0.018 -0.0963 -0.2016 -0.2788
 6419TIP3    H135829   2.728   2.436  -0.053  1.2812 -1.0041 -1.2561
 6419TIP3    H235830   2.776   2.498   0.076 -1.8618 -0.0345 -0.4696
 6420TIP3   OH235831   0.257   5.605   5.833 -0.3000 -0.2580 -0.2810
 6420TIP3    H135832   0.267   5.511   5.841 -1.7929 -0.6639 -2.5391
 6420TIP3    H235833   0.166   5.623   5.855 -0.7233  0.2718 -2.2134
 6421TIP3   OH235834   3.266   0.867   3.262  0.1038  0.1200  0.0242
 6421TIP3    H135835   3.221   0.783   3.255 -0.6271  0.4958  0.0675
 6421TIP3    H235836   3.356   0.849   3.236 -0.4996 -0.2893 -1.9376
 6422TIP3   OH235837   2.491   0.807   6.987 -0.5478 -0.6507  0.5327
 6422TIP3    H135838   2.468   0.765   6.905 -1.5528 -0.8231  0.8955
 6422TIP3    H235839   2.496   0.736   7.051  0.2212 -0.5175  0.6379
 6423TIP3   OH235840   0.268   1.528   0.134  0.2684  0.6871 -0.2358
 6423TIP3    H135841   0.257   1.572   0.219  1.2900  0.6732 -0.0898
 6423TIP3    H235842   0.360   1.542   0.111  0.9713 -2.3177  0.3411
 6424TIP3   OH235843   0.649   1.897   2.192 -0.6253 -0.6780 -0.4487
 6424TIP3    H135844   0.662   1.975   2.247  0.4660 -1.3857  0.3533
 6424TIP3    H235845   0.563   1.909   2.153 -2.0144 -0.6820  2.3515
 6425TIP3   OH235846   3.568   1.516   8.274 -0.2766 -0.5403 -0.3528
 6425TIP3    H135847   3.476   1.542   8.277 -0.4528 -1.0742 -0.8334
 6425TIP3    H235848   3.584   1.496   8.182 -0.2964 -2.6030  0.0507
 6426TIP3   OH235849   5.961   0.049   0.794 -0.0816 -0.4045  0.0795
 6426TIP3    H135850   6.009   0.001   0.726 -0.3318 -0.2022 -0.2430
 6426TIP3    H235851   5.984   0.004   0.875  0.3815 -0.5277 -0.1124
 6427TIP3   OH235852   2.230   5.789   1.533  0.5988  0.0537 -0.1099
 6427TIP3    H135853   2.319   5.819   1.517  0.3087  0.5612 -0.8139
 6427TIP3    H235854   2.181   5.868   1.558 -0.3333  0.3844 -2.6741
 6428TIP3   OH235855   4.600   0.662   0.757 -0.5197  0.4472  0.4610
 6428TIP3    H135856   4.634   0.650   0.846  1.7647 -0.7921 -0.4991
 6428TIP3    H235857   4.585   0.757   0.749  2.1444  1.0151  1.2332
 6429TIP3   OH235858   2.561   1.068   1.302  0.2265 -0.3667  0.5708
 6429TIP3    H135859   2.498   1.029   1.362 -0.6656  2.7055  1.8110
 6429TIP3    H235860   2.644   1.026   1.325 -0.3781 -0.4481  2.8659
 6430TIP3   OH235861   1.881   4.809   8.494 -0.2581 -0.0318  0.1164
 6430TIP3    H135862   1.929   4.882   8.455  0.1762 -0.9973 -1.2257
 6430TIP3    H235863   1.848   4.843   8.577  0.2533  1.5614 -0.3104
 6431TIP3   OH235864   5.872   6.227   1.596 -0.2563 -0.0297  0.2063
 6431TIP3    H135865   5.963   6.256   1.591 -0.2261 -0.1192  0.2354
 6431TIP3    H235866   5.821   6.306   1.582 -0.1734 -0.0691 -0.3569
 6432TIP3   OH235867   3.448   6.001   8.664  0.3695 -0.5366  0.1536
 6432TIP3    H135868   3.541   6.008   8.645  0.6539  1.1322  1.9088
 6432TIP3    H235869   3.415   6.091   8.656 -1.4448 -1.2963 -1.9303
 6433TIP3   OH235870   6.101   2.440   0.996  0.5137  0.3212  0.7406
 6433TIP3    H135871   6.123   2.510   1.058  0.1168  0.5752  0.5943
 6433TIP3    H235872   6.149   2.364   1.029  1.3969  0.8006  0.5831
 6434TIP3   OH235873   3.399   0.317   2.388  0.2493 -0.3259 -0.2964
 6434TIP3    H135874   3.465   0.255   2.358  4.6349  3.0777  1.1931
 6434TIP3    H235875   3.388   0.298   2.481  1.2827  0.7188  0.0661
 6435TIP3   OH235876   2.023   2.918   1.306  0.1489 -0.0456 -0.4847
 6435TIP3    H135877   2.029   2.824   1.327  0.2689  0.2037  0.6609
 6435TIP3    H235878   1.937   2.944   1.337  0.1870  0.2687 -0.6357
 6436TIP3   OH235879   0.373   3.473   2.227  0.0245  0.1738  0.2799
 6436TIP3    H135880   0.364   3.513   2.140 -0.0712 -0.5483 -0.0509
 6436TIP3    H235881   0.410   3.542   2.282 -1.7337  1.2771  0.1511
 6437TIP3   OH235882   4.377   5.037   3.041  0.2006 -0.0659  0.5647
 6437TIP3    H135883   4.295   5.086   3.049  0.0482 -0.3365  0.6956
 6437TIP3    H235884   4.366   4.963   3.102  1.5057  1.1988  2.4479
 6438TIP3   OH235885   5.733   1.236   1.635  0.2060 -0.0323  0.3456
 6438TIP3    H135886   5.821   1.234   1.673  0.3605 -1.7144 -0.0526
 6438TIP3    H235887   5.682   1.178   1.690  0.3914 -2.4157 -1.7819
 6439TIP3   OH235888   3.831   2.366   8.638  0.4673  1.1939 -0.0808
 6439TIP3    H135889   3.790   2.313   8.569  1.9633  1.0841 -0.9179
 6439TIP3    H235890   3.768   2.437   8.653 -0.2217  0.8165 -1.0323
 6440TIP3   OH235891   1.499   0.148   0.699  0.2534 -0.1341  0.0437
 6440TIP3    H135892   1.590   0.163   0.674 -0.2417  0.4504 -1.5495
 6440TIP3    H235893   1.498   0.161   0.794  1.7274  0.3952  0.0167
 6441TIP3   OH235894   2.544   0.819   6.246 -0.3710 -0.6785  0.4434
 6441TIP3    H135895   2.582   0.897   6.205 -1.8366 -0.1266  0.0599
 6441TIP3    H235896   2.619   0.768   6.275  0.6497  0.2975 -0.3874
 6442TIP3   OH235897   3.178   1.799   8.094  0.5409 -0.5312  0.2145
 6442TIP3    H135898   3.266   1.822   8.125  0.9063 -0.5734 -0.7733
 6442TIP3    H235899   3.190   1.775   8.003 -0.9253  2.3718 -0.8580
 6443TIP3   OH235900   2.076   5.618   2.505 -0.4813 -0.2491  0.6329
 6443TIP3    H135901   2.050   5.613   2.597 -2.2340  1.3059  0.2773
 6443TIP3    H235902   2.035   5.698   2.473  1.4327  0.1190 -1.1138
 6444TIP3   OH235903   2.203   6.116   2.072 -0.4857  0.4718 -0.0625
 6444TIP3    H135904   2.160   6.184   2.021 -0.9967 -2.1571 -3.5169
 6444TIP3    H235905   2.284   6.097   2.025  0.4162 -0.2425  1.6845
 6445TIP3   OH235906   0.629   4.446   7.693  0.1575  0.3918 -0.1629
 6445TIP3    H135907   0.554   4.411   7.646  1.3200 -0.0681 -1.7664
 6445TIP3    H235908   0.645   4.531   7.653  1.4239 -0.1894 -0.9604
 6446TIP3   OH235909   0.431   5.320   0.540  0.1454 -0.2389  0.2978
 6446TIP3    H135910   0.510   5.300   0.590  1.0810  1.2630 -0.5404
 6446TIP3    H235911   0.462   5.341   0.452 -1.0432  1.5340  0.2505
 6447TIP3   OH235912   4.927   4.485   1.817 -0.8218  0.2018  0.7788
 6447TIP3    H135913   4.978   4.544   1.760 -1.9205 -0.0521 -0.5164
 6447TIP3    H235914   4.856   4.540   1.851 -0.4957  0.2035  1.4833
 6448TIP3   OH235915   5.982   0.088   8.458  0.0174  0.7176 -0.9618
 6448TIP3    H135916   5.948   0.003   8.430 -0.2761  0.6897 -0.5267
 6448TIP3    H235917   5.909   0.149   8.445 -0.6528  0.4444  1.1156
 6449TIP3   OH235918   6.086   3.785   9.028 -0.4315 -0.3302  0.0056
 6449TIP3    H135919   6.168   3.770   8.982  0.3852 -0.9660  1.5876
 6449TIP3    H235920   6.112   3.809   9.117 -1.9239  1.9496 -0.0786
 6450TIP3   OH235921   4.510   6.005   7.300  0.2722 -0.5767  0.3757
 6450TIP3    H135922   4.604   6.011   7.283  0.1779 -2.2965 -1.1751
 6450TIP3    H235923   4.492   5.911   7.300 -1.4347 -0.2785  0.7262
 6451TIP3   OH235924   0.105   2.788   8.825 -0.6422 -0.3306  0.5964
 6451TIP3    H135925   0.049   2.765   8.751 -2.7748  1.1127  1.6694
 6451TIP3    H235926   0.107   2.883   8.825 -0.0594 -0.3188  1.9611
 6452TIP3   OH235927   1.643   4.745   6.981 -0.0951  0.0081 -0.1591
 6452TIP3    H135928   1.567   4.713   7.030 -0.3763 -2.9160 -2.2351
 6452TIP3    H235929   1.716   4.690   7.012  0.7454  1.3150  0.2592
 6453TIP3   OH235930   0.303   0.268   2.357  0.4358 -0.2056  0.7139
 6453TIP3    H135931   0.287   0.180   2.392 -0.5633  0.1787  1.2735
 6453TIP3    H235932   0.292   0.326   2.433  1.9148  0.3424  0.5322
 6454TIP3   OH235933   4.476   4.688   9.190 -0.5674 -0.5682  0.5770
 6454TIP3    H135934   4.419   4.744   9.136 -0.8695 -0.2009  1.2590
 6454TIP3    H235935   4.509   4.622   9.129 -2.4448 -1.3496  0.3152
 6455TIP3   OH235936   2.622   1.861   6.498  0.1226 -0.0819  0.0446
 6455TIP3    H135937   2.583   1.864   6.411  1.8411 -1.9265 -0.8791
 6455TIP3    H235938   2.564   1.803   6.548  0.2517 -0.7383 -0.5434
 6456TIP3   OH235939   3.990   3.306   6.785  0.3096  0.5742 -0.3429
 6456TIP3    H135940   4.041   3.386   6.800  1.1111 -0.1682  1.0534
 6456TIP3    H235941   3.994   3.292   6.691  1.1002  1.5691 -0.4677
 6457TIP3   OH235942   1.459   3.848   8.172  0.0615  0.6108  0.3988
 6457TIP3    H135943   1.473   3.764   8.215 -1.4061 -0.9765 -1.9637
 6457TIP3    H235944   1.410   3.900   8.235 -1.5014 -1.3756  0.9115
 6458TIP3   OH235945   0.653   5.065   2.868 -0.4228  0.5351  0.7502
 6458TIP3    H135946   0.665   5.004   2.941 -0.0498  1.1324  1.1873
 6458TIP3    H235947   0.678   5.150   2.902 -2.1821  1.1885  0.5307
 6459TIP3   OH235948   0.447   0.520   0.637 -0.1888  0.1195 -0.2756
 6459TIP3    H135949   0.470   0.439   0.591 -1.2833 -0.6501  0.4837
 6459TIP3    H235950   0.431   0.584   0.567 -2.7926 -1.2848 -1.0775
 6460TIP3   OH235951   0.386   4.852   3.386  0.0430  0.2109  0.6928
 6460TIP3    H135952   0.341   4.770   3.401 -2.0526  1.2482  0.4791
 6460TIP3    H235953   0.340   4.891   3.311  1.6541  1.1290  0.1129
 6461TIP3   OH235954   3.896   2.804   8.430  0.4367  0.0796  0.0075
 6461TIP3    H135955   3.953   2.727   8.443  0.2619  0.1748  1.5957
 6461TIP3    H235956   3.951   2.867   8.383  0.4997 -1.0839 -1.5736
 6462TIP3   OH235957   4.418   5.011   1.683 -0.4583 -0.3481 -0.0223
 6462TIP3    H135958   4.383   4.979   1.600  0.2399 -0.9128 -0.1159
 6462TIP3    H235959   4.361   4.973   1.750  0.0545 -1.4179 -0.1604
 6463TIP3   OH235960   2.962   4.883   9.328 -0.0990  0.2532 -0.2382
 6463TIP3    H135961   2.898   4.942   9.369 -0.7954  0.1750 -1.1839
 6463TIP3    H235962   2.931   4.796   9.350 -0.1335  0.2176 -0.4330
 6464TIP3   OH235963   6.010   4.753   1.766  0.0451 -0.1266 -0.0991
 6464TIP3    H135964   6.019   4.691   1.838  2.8534 -0.6678 -0.7712
 6464TIP3    H235965   5.933   4.804   1.787 -0.4913 -1.7176  2.1440
 6465TIP3   OH235966   3.605   4.091   0.891  0.5597 -0.0418 -0.1718
 6465TIP3    H135967   3.579   4.166   0.944  3.0550  2.5137 -2.3208
 6465TIP3    H235968   3.522   4.056   0.857 -0.6422  2.1426  0.3740
 6466TIP3   OH235969   0.734   4.206   7.817  0.2663  0.6372  0.0478
 6466TIP3    H135970   0.706   4.286   7.771 -2.5206  0.2627  0.9177
 6466TIP3    H235971   0.682   4.136   7.776  1.7283 -0.5608  0.1713
 6467TIP3   OH235972   0.716   2.031   0.452  0.0164 -0.1731 -0.2086
 6467TIP3    H135973   0.778   2.100   0.431  1.2630 -0.6411  1.7175
 6467TIP3    H235974   0.682   2.054   0.538  0.6286 -2.0402  0.5837
 6468TIP3   OH235975   5.206   3.887   2.408  0.7088  0.0834  0.4992
 6468TIP3    H135976   5.132   3.851   2.360  2.1710 -1.9333 -0.3827
 6468TIP3    H235977   5.176   3.891   2.499 -0.9275  0.6583 -0.0352
 6469TIP3   OH235978   1.807   4.593   1.888 -0.4646  0.2197  0.7113
 6469TIP3    H135979   1.790   4.614   1.796  0.7472 -0.3739  0.3281
 6469TIP3    H235980   1.747   4.522   1.908 -1.2665  0.8556  0.6136
 6470TIP3   OH235981   5.053   5.852   8.912  0.3745 -0.0865 -0.5405
 6470TIP3    H135982   4.997   5.867   8.988  0.9223 -2.9367  0.5779
 6470TIP3    H235983   5.106   5.931   8.905  0.8380 -0.0001  2.5601
 6471TIP3   OH235984   3.838   2.644   0.810 -0.5548  0.6071  0.3255
 6471TIP3    H135985   3.782   2.674   0.882  1.6225 -0.3968  2.5880
 6471TIP3    H235986   3.901   2.714   0.797 -1.2591  1.0168 -1.0421
 6472TIP3   OH235987   2.329   3.827   2.250  0.2695 -0.5159 -0.3515
 6472TIP3    H135988   2.387   3.799   2.180  0.7003 -0.0709 -0.1856
 6472TIP3    H235989   2.388   3.846   2.323 -0.0840 -0.0593 -0.1785
 6473TIP3   OH235990   3.947   1.210   8.369  0.1676 -0.1902  0.3784
 6473TIP3    H135991   3.859   1.215   8.333 -0.2120  2.8559  1.4272
 6473TIP3    H235992   3.934   1.207   8.464  1.2075 -1.6895  0.5080
 6474TIP3   OH235993   0.294   3.143   1.202  0.4603 -0.2118  0.1145
 6474TIP3    H135994   0.346   3.215   1.236  0.1896  0.2038 -0.3492
 6474TIP3    H235995   0.339   3.064   1.234  1.8117  0.1215 -0.9030
 6475TIP3   OH235996   4.355   4.392   1.361 -0.3244  0.8687  0.0020
 6475TIP3    H135997   4.421   4.437   1.413  0.5258  0.5056 -0.7255
 6475TIP3    H235998   4.317   4.460   1.306  0.4684  0.8289 -0.6051
 6476TIP3   OH235999   5.068   0.536   8.007 -0.0605  0.2205  0.2625
 6476TIP3    H136000   5.159   0.534   7.976 -0.1469  0.1768  0.0026
 6476TIP3    H236001   5.019   0.569   7.932 -0.4538 -1.1231 -0.1069
 6477TIP3   OH236002   3.582   3.248   8.926  0.1020 -0.0499  0.0982
 6477TIP3    H136003   3.509   3.297   8.964 -1.6695 -2.3208 -0.2104
 6477TIP3    H236004   3.597   3.176   8.987  0.1799 -1.2069 -1.2394
 6478TIP3   OH236005   3.107   2.036   9.026 -0.7530  0.8029  0.5953
 6478TIP3    H136006   3.064   2.077   8.951 -1.3165 -0.6813  0.0507
 6478TIP3    H236007   3.035   1.995   9.075 -0.2964  1.0473  1.4826
 6479TIP3   OH236008   3.916   6.409   3.295 -0.1290 -0.0020 -0.0169
 6479TIP3    H136009   3.918   6.422   3.390 -0.9954  0.4961 -0.0551
 6479TIP3    H236010   3.879   6.321   3.284  1.7986 -0.8822  0.1350
 6480TIP3   OH236011   0.139   2.622   9.199 -0.0679 -0.3294 -0.1580
 6480TIP3    H136012   0.122   2.711   9.169  0.6181 -0.7910 -2.0323
 6480TIP3    H236013   0.131   2.568   9.121 -1.9566 -2.1644  1.1752
 6481TIP3   OH236014   5.151   0.303   1.068  0.5050 -0.7808 -0.0549
 6481TIP3    H136015   5.227   0.248   1.087  1.0136 -0.7182 -1.7515
 6481TIP3    H236016   5.164   0.332   0.977 -0.6796  0.6390  0.1832
 6482TIP3   OH236017   5.059   3.332   8.215  0.3742  0.0918 -0.3608
 6482TIP3    H136018   5.060   3.250   8.265  1.4961 -0.9037 -1.9103
 6482TIP3    H236019   5.147   3.367   8.227  0.7083 -0.2337 -1.6774
 6483TIP3   OH236020   4.972   3.006   3.143  0.1456  0.3884  0.1654
 6483TIP3    H136021   4.913   3.080   3.128  0.7188  0.7323 -0.4505
 6483TIP3    H236022   5.024   3.001   3.063  0.0578 -0.7402  0.1709
 6484TIP3   OH236023   2.694   5.262   1.707  0.8814  0.1454 -0.0178
 6484TIP3    H136024   2.786   5.245   1.724  0.9704 -0.0387 -0.6357
 6484TIP3    H236025   2.655   5.175   1.700  0.9042  0.2027 -0.9832
 6485TIP3   OH236026   0.371   1.846   0.799  0.2354 -0.0043 -0.9156
 6485TIP3    H136027   0.346   1.936   0.780  0.9534  0.2128 -0.8813
 6485TIP3    H236028   0.462   1.840   0.769  0.0804 -0.8229 -1.2519
 6486TIP3   OH236029   1.515   0.544   8.021 -0.3913  0.1217 -0.1393
 6486TIP3    H136030   1.485   0.502   7.941 -1.4950  0.2192  0.2038
 6486TIP3    H236031   1.552   0.627   7.993  0.9947 -0.6626 -0.7303
 6487TIP3   OH236032   3.939   3.595   0.584  0.3307 -0.1197  0.1937
 6487TIP3    H136033   3.986   3.513   0.596  1.1757  0.3178 -0.0489
 6487TIP3    H236034   3.999   3.662   0.616 -1.2753  0.2549  2.8339
 6488TIP3   OH236035   0.136   2.687   0.810 -0.7080 -0.3674 -0.6414
 6488TIP3    H136036   0.093   2.726   0.733 -0.3112 -0.8726 -1.1270
 6488TIP3    H236037   0.145   2.760   0.871  0.4352  0.4477 -1.7154
 6489TIP3   OH236038   1.144   1.529   7.472  0.8780 -0.5188  0.3238
 6489TIP3    H136039   1.060   1.498   7.507 -0.1585  1.5851 -0.1034
 6489TIP3    H236040   1.124   1.558   7.383  2.4396 -1.3876 -0.3599
 6490TIP3   OH236041   3.190   3.794   1.893  0.3629  0.5064 -0.1101
 6490TIP3    H136042   3.164   3.793   1.801 -1.5130  1.5542  0.3645
 6490TIP3    H236043   3.157   3.712   1.929  1.5085 -0.1223 -0.4461
 6491TIP3   OH236044   1.338   5.140   3.104 -0.0309 -0.1464  0.5287
 6491TIP3    H136045   1.274   5.202   3.139  0.8955  0.3168  1.4072
 6491TIP3    H236046   1.379   5.187   3.031  0.0296 -0.0714  0.6115
 6492TIP3   OH236047   5.322   1.423   2.157 -0.1575  0.5505  0.0129
 6492TIP3    H136048   5.332   1.518   2.145  0.1969  0.8029  1.9024
 6492TIP3    H236049   5.235   1.404   2.124 -1.3649  2.0762  2.0032
 6493TIP3   OH236050   1.127   2.225   6.361  0.8116 -0.0758 -0.2348
 6493TIP3    H136051   1.149   2.136   6.388 -1.8510 -0.7171  0.0934
 6493TIP3    H236052   1.097   2.216   6.271  0.0453  0.3711 -0.0359
 6494TIP3   OH236053   1.341   4.383   2.103  0.0222  0.2243 -0.6353
 6494TIP3    H136054   1.309   4.474   2.099  1.7406  0.8279 -3.0064
 6494TIP3    H236055   1.277   4.333   2.051 -0.5029  0.1979  0.0214
 6495TIP3   OH236056   6.077   3.178   6.842  0.3615 -0.2641  0.9412
 6495TIP3    H136057   6.111   3.267   6.841 -0.7189  0.1746  1.2363
 6495TIP3    H236058   6.090   3.146   6.752  0.9407  0.1086  0.8879
 6496TIP3   OH236059   3.462   0.866   1.968  0.6234 -0.1598 -0.1094
 6496TIP3    H136060   3.458   0.802   1.896  0.0613 -0.0307 -0.1982
 6496TIP3    H236061   3.371   0.872   1.999  1.1006 -1.5270  1.7674
 6497TIP3   OH236062   1.862   0.932   8.029  0.2742 -0.4231 -0.3798
 6497TIP3    H136063   1.928   0.970   7.972  0.0915 -0.1850 -0.4400
 6497TIP3    H236064   1.910   0.874   8.088  0.5205 -0.3265 -0.4859
 6498TIP3   OH236065   2.912   5.366   7.829  0.4821 -0.0432  0.8688
 6498TIP3    H136066   2.964   5.394   7.754 -1.9334 -0.3244 -1.0398
 6498TIP3    H236067   2.902   5.272   7.819 -1.2071  0.1259  0.5350
 6499TIP3   OH236068   2.457   4.185   7.965  0.3136 -0.5789  0.6327
 6499TIP3    H136069   2.439   4.271   8.004  0.5139 -1.2187  2.2122
 6499TIP3    H236070   2.508   4.139   8.032  1.4079 -1.4524 -0.7493
 6500TIP3   OH236071   2.388   1.620   7.738 -0.2406  0.2238 -0.2925
 6500TIP3    H136072   2.308   1.601   7.787  0.3386 -0.2026  0.5104
 6500TIP3    H236073   2.435   1.683   7.792  0.2901 -0.0562 -0.4193
 6501TIP3   OH236074   4.139   2.988   7.844  0.2225  0.2280  0.0318
 6501TIP3    H136075   4.208   2.926   7.819  0.2549  0.5300 -0.6465
 6501TIP3    H236076   4.157   3.066   7.793 -0.1232  0.6205  0.4981
 6502TIP3   OH236077   2.735   4.187   1.002 -0.3490  0.6974  0.1080
 6502TIP3    H136078   2.749   4.093   0.994 -1.3960  0.6150 -1.2155
 6502TIP3    H236079   2.822   4.225   1.003  0.2051 -0.3907  3.0904
 6503TIP3   OH236080   2.372   4.758   9.062 -0.9439  0.4307 -0.2105
 6503TIP3    H136081   2.456   4.799   9.043 -0.1301 -0.5679  1.0606
 6503TIP3    H236082   2.355   4.702   8.987 -0.6038  0.8161 -0.5798
 6504TIP3   OH236083   1.548   1.500   7.667 -0.7701 -0.2407  0.1523
 6504TIP3    H136084   1.492   1.504   7.590  0.0557 -1.2623 -0.5192
 6504TIP3    H236085   1.602   1.579   7.662  1.5287 -1.8217 -2.1212
 6505TIP3   OH236086   2.109   5.106   8.062  0.1393  0.7767 -0.1824
 6505TIP3    H136087   2.034   5.124   8.005 -0.6146  1.5569  1.0173
 6505TIP3    H236088   2.177   5.165   8.031 -0.3162  1.3089 -0.1722
 6506TIP3   OH236089   4.345   5.881   0.240 -0.2892 -0.5492 -0.7164
 6506TIP3    H136090   4.262   5.856   0.279 -0.7112  3.2353  1.3025
 6506TIP3    H236091   4.411   5.833   0.290 -1.1274 -1.3144 -0.3293
 6507TIP3   OH236092   2.326   3.972   9.241  0.1004 -0.1085 -0.4246
 6507TIP3    H136093   2.412   3.957   9.280 -0.3825  0.9484  1.1329
 6507TIP3    H236094   2.275   3.895   9.265  0.4512 -0.5142 -0.9439
 6508TIP3   OH236095   0.522   0.537   6.776 -0.0602  0.5178  0.4826
 6508TIP3    H136096   0.504   0.525   6.682 -1.7402 -1.1274  0.9499
 6508TIP3    H236097   0.612   0.507   6.787  0.3607  1.2885 -0.6883
 6509TIP3   OH236098   0.749   1.025   0.011 -0.6390 -0.4217  0.0312
 6509TIP3    H136099   0.817   0.974  -0.033  0.0068 -0.2116  0.7607
 6509TIP3    H236100   0.797   1.080   0.073 -1.3109  1.2320 -0.8638
 6510TIP3   OH236101   2.040   0.601   3.161 -0.1076 -0.1668 -0.0644
 6510TIP3    H136102   2.070   0.686   3.129  0.4941  0.3323  1.7093
 6510TIP3    H236103   1.958   0.620   3.208 -0.8657 -0.8375 -1.0782
 6511TIP3   OH236104   3.996   0.583   0.101  0.5539  0.6669  0.2048
 6511TIP3    H136105   4.080   0.579   0.147  0.8808  1.2313 -0.3465
 6511TIP3    H236106   3.985   0.675   0.079 -0.2714  0.6158  0.3784
 6512TIP3   OH236107   1.061   6.282   6.910  0.0418 -0.2132  0.4156
 6512TIP3    H136108   1.008   6.317   6.981 -0.6665 -2.8536  1.3246
 6512TIP3    H236109   1.001   6.275   6.836  0.4225  1.2488 -0.0579
 6513TIP3   OH236110   5.965   0.825   2.434 -0.0679 -0.2139 -0.2662
 6513TIP3    H136111   5.913   0.904   2.445  1.3180  1.0806 -2.3306
 6513TIP3    H236112   6.010   0.815   2.518 -1.4002  0.3015  0.5355
 6514TIP3   OH236113   5.764   1.163   0.348  0.0210 -0.0456  0.2859
 6514TIP3    H136114   5.841   1.107   0.336  0.3366 -0.0330  1.9828
 6514TIP3    H236115   5.799   1.251   0.356 -0.4578  0.4207 -2.0978
 6515TIP3   OH236116   2.598   2.410   0.164  0.0418 -0.0969  0.1583
 6515TIP3    H136117   2.568   2.385   0.252 -0.2947  1.2269  0.4456
 6515TIP3    H236118   2.540   2.482   0.138  0.6602  0.0727 -0.8099
 6516TIP3   OH236119   3.166   3.269   6.594 -0.0468 -0.4220 -0.4791
 6516TIP3    H136120   3.219   3.189   6.597  1.4113  0.4726 -1.4012
 6516TIP3    H236121   3.136   3.274   6.504  0.1156  0.2225 -0.5003
 6517TIP3   OH236122   1.708   1.035   0.827 -0.1619  0.7002 -0.2849
 6517TIP3    H136123   1.762   1.104   0.865  0.7982  0.1073 -0.5440
 6517TIP3    H236124   1.638   1.022   0.892  1.2236 -0.0293  1.1323
 6518TIP3   OH236125   1.791   2.842   0.972 -0.1253  0.4296 -0.2874
 6518TIP3    H136126   1.825   2.759   1.005 -1.6636 -1.3509 -2.7792
 6518TIP3    H236127   1.705   2.851   1.013  0.0117  0.7735 -0.0712
 6519TIP3   OH236128   2.100   1.261   6.989 -0.4785 -0.0797 -0.3400
 6519TIP3    H136129   2.157   1.196   7.029 -0.6296  1.0675  1.9131
 6519TIP3    H236130   2.160   1.321   6.945 -0.2750 -1.0895 -1.5035
 6520TIP3   OH236131   4.777   4.496   9.241  0.1863 -0.0096 -0.1899
 6520TIP3    H136132   4.744   4.562   9.180 -1.7953 -1.5110 -0.8669
 6520TIP3    H236133   4.734   4.518   9.324  0.2348  0.0881 -0.1913
 6521TIP3   OH236134   0.203   5.932   0.711  0.6658 -0.2370  0.3771
 6521TIP3    H136135   0.297   5.921   0.727  1.0936 -0.2345 -1.8691
 6521TIP3    H236136   0.198   5.968   0.623 -1.4231  0.8243  0.8723
 6522TIP3   OH236137   1.506   0.224   6.661  0.1479  0.0368  1.0032
 6522TIP3    H136138   1.445   0.205   6.732  0.0362 -0.0154  0.8945
 6522TIP3    H236139   1.566   0.149   6.661 -0.4025 -0.4164  0.4581
 6523TIP3   OH236140   1.487   6.143   0.454 -0.0131  0.9351 -0.2949
 6523TIP3    H136141   1.574   6.111   0.432 -0.6047  0.5666 -2.2645
 6523TIP3    H236142   1.472   6.217   0.395 -0.9024  1.2210  0.2662
 6524TIP3   OH236143   2.032   0.970   2.439 -0.7098 -0.0928  0.4078
 6524TIP3    H136144   2.045   0.990   2.347 -1.4834 -2.8154 -0.3922
 6524TIP3    H236145   2.119   0.977   2.478  0.5091 -2.9775 -1.5015
 6525TIP3   OH236146   0.677   0.213   7.928  0.5055 -0.4124 -0.0200
 6525TIP3    H136147   0.671   0.304   7.957  0.1492 -0.3807 -0.1921
 6525TIP3    H236148   0.750   0.177   7.978 -0.8251 -0.7102  1.8139
 6526TIP3   OH236149   0.030   6.233   8.067 -0.3035  0.1687 -0.3852
 6526TIP3    H136150   0.021   6.243   7.972 -0.0240 -2.5448 -0.7726
 6526TIP3    H236151  -0.048   6.185   8.094  0.6689 -1.0244  0.3791
 6527TIP3   OH236152   0.236   3.927   8.922 -0.4417  0.8756  0.3528
 6527TIP3    H136153   0.254   4.016   8.893 -0.6638  1.3846  1.6841
 6527TIP3    H236154   0.274   3.922   9.010  1.8444 -1.1691 -0.6267
 6528TIP3   OH236155   4.443   4.965   2.796  0.9377 -0.1960  0.2297
 6528TIP3    H136156   4.430   5.013   2.877  1.3052 -0.9481  0.7415
 6528TIP3    H236157   4.420   5.027   2.727  2.4904  1.0987  0.8171
 6529TIP3   OH236158   2.871   2.848   7.186 -0.3814 -0.2415  0.3478
 6529TIP3    H136159   2.948   2.905   7.180 -2.3134  2.7174  1.4841
 6529TIP3    H236160   2.834   2.848   7.098 -0.0900 -0.1778  0.2248
 6530TIP3   OH236161   4.079   4.671   1.849 -0.4311  0.6149 -0.3291
 6530TIP3    H136162   4.021   4.648   1.776 -0.1210  1.8149 -0.9867
 6530TIP3    H236163   4.047   4.618   1.922 -1.9028  0.7037 -0.8593
 6531TIP3   OH236164   1.337   1.677   1.957  0.2984  0.3138 -0.7910
 6531TIP3    H136165   1.350   1.690   2.051  3.3701 -0.8342 -0.9164
 6531TIP3    H236166   1.254   1.719   1.938 -0.8720 -0.1523  2.5760
 6532TIP3   OH236167   4.421   2.793   2.381  0.0273  0.0705 -0.1141
 6532TIP3    H136168   4.462   2.778   2.467  0.6957  0.1032 -0.4178
 6532TIP3    H236169   4.428   2.708   2.337 -0.5526 -0.0170 -0.0419
 6533TIP3   OH236170   6.217   6.345   9.250 -0.1752  0.4114  0.5346
 6533TIP3    H136171   6.271   6.381   9.180 -0.5880  0.1005  0.0455
 6533TIP3    H236172   6.262   6.370   9.331  0.0816  1.1416  0.1755
 6534TIP3   OH236173   4.973   2.736   0.509 -0.3189  0.1828  0.4355
 6534TIP3    H136174   5.048   2.796   0.511 -0.1256 -0.0671  0.8702
 6534TIP3    H236175   4.983   2.688   0.426 -2.0113  2.6568 -1.3650
 6535TIP3   OH236176   5.504   0.655   7.523  0.3950  0.0661 -0.0749
 6535TIP3    H136177   5.447   0.706   7.466  1.1259  0.1276 -0.7691
 6535TIP3    H236178   5.589   0.655   7.479  1.1143  0.5232  1.2380
 6536TIP3   OH236179   1.485   5.809   8.462  0.3403 -0.1662 -0.4842
 6536TIP3    H136180   1.573   5.777   8.443  0.9288  0.7081  0.6544
 6536TIP3    H236181   1.433   5.729   8.475  0.8878 -0.6912 -1.4043
 6537TIP3   OH236182   2.390   4.534   0.469 -0.1005 -0.5525  0.4693
 6537TIP3    H136183   2.379   4.444   0.500 -1.0082 -0.3571  0.7477
 6537TIP3    H236184   2.416   4.583   0.547  0.3341 -0.5567  0.3298
 6538TIP3   OH236185   4.196   1.799   0.502  0.2200  0.1916 -0.2312
 6538TIP3    H136186   4.244   1.716   0.506  0.9704  0.6395  0.3730
 6538TIP3    H236187   4.104   1.774   0.513  0.3705 -0.6208 -0.7340
 6539TIP3   OH236188   3.059   1.046   8.725 -0.0071 -0.4832  0.1077
 6539TIP3    H136189   3.038   1.139   8.733  2.5366 -0.0053  4.1963
 6539TIP3    H236190   3.002   1.003   8.789  1.3629 -1.1191  0.9557
 6540TIP3   OH236191   1.123   1.307   8.081  0.6840  0.4806 -0.0892
 6540TIP3    H136192   1.215   1.302   8.105  1.1536  0.1437 -1.8030
 6540TIP3    H236193   1.119   1.378   8.016  0.1433 -0.9015 -1.6277
 6541TIP3   OH236194   1.009   3.436   9.060  0.1510  0.4656  1.0348
 6541TIP3    H136195   1.086   3.410   9.009 -0.7213 -1.4913  0.6217
 6541TIP3    H236196   1.037   3.515   9.107  1.7019  1.0449 -0.7297
 6542TIP3   OH236197   5.260   4.765   2.163  0.0737  1.0115  0.6060
 6542TIP3    H136198   5.264   4.841   2.221  0.0034  1.7206 -0.2750
 6542TIP3    H236199   5.218   4.697   2.215 -0.9219  1.9374  1.0664
 6543TIP3   OH236200   0.855   0.649   2.164  0.1117 -0.6855  0.6700
 6543TIP3    H136201   0.851   0.713   2.235 -0.9039 -1.3756  1.2719
 6543TIP3    H236202   0.853   0.701   2.084  0.3912  0.0734  1.1457
 6544TIP3   OH236203   3.624   0.842   8.133 -0.4425 -0.1846  0.2840
 6544TIP3    H136204   3.598   0.833   8.041  0.1415 -1.6488  0.2401
 6544TIP3    H236205   3.680   0.920   8.134  0.0559 -0.5163 -0.7180
 6545TIP3   OH236206   1.023   0.571   7.074 -0.6338 -0.0009  0.2547
 6545TIP3    H136207   1.030   0.647   7.132  1.1594  1.4065 -1.6595
 6545TIP3    H236208   1.111   0.533   7.072 -0.5260  0.2303 -1.7834
 6546TIP3   OH236209   3.637   2.283   8.434  0.3255 -0.6758 -0.6696
 6546TIP3    H136210   3.686   2.358   8.400  1.0083 -1.2816 -1.0551
 6546TIP3    H236211   3.545   2.309   8.425  0.5494  0.0775 -0.8858
 6547TIP3   OH236212   5.218   6.406   0.322 -0.7803 -0.0804 -0.3714
 6547TIP3    H136213   5.225   6.344   0.394  1.1852  0.7865  0.2345
 6547TIP3    H236214   5.273   6.480   0.347  0.3044  0.0876 -2.9259
 6548TIP3   OH236215   0.562   3.199   3.118 -0.4505 -0.0481 -0.0194
 6548TIP3    H136216   0.518   3.114   3.107  1.0619 -0.6084 -2.4726
 6548TIP3    H236217   0.500   3.262   3.081 -0.2640 -0.5194 -1.1843
 6549TIP3   OH236218   3.166   0.721   1.168  0.2213 -0.4705 -0.3094
 6549TIP3    H136219   3.259   0.739   1.176  0.5156 -1.6175 -0.8952
 6549TIP3    H236220   3.158   0.627   1.184 -1.0200 -0.1614  1.1182
 6550TIP3   OH236221   3.650   4.898   0.159 -0.0811  0.1069 -0.6098
 6550TIP3    H136222   3.565   4.883   0.117 -0.0324  1.1195 -1.0966
 6550TIP3    H236223   3.628   4.949   0.237 -0.0002 -0.3862 -0.2581
 6551TIP3   OH236224   1.235   1.535   7.200 -0.0069  0.4794  0.0378
 6551TIP3    H136225   1.317   1.577   7.172  1.1938 -1.6385  0.1493
 6551TIP3    H236226   1.213   1.476   7.128 -0.5018 -0.2120  0.7445
 6552TIP3   OH236227   5.338   6.185   8.053  0.0773  0.3377  0.0217
 6552TIP3    H136228   5.370   6.156   7.968  0.3896 -1.8076  0.7983
 6552TIP3    H236229   5.406   6.244   8.086  0.1836  0.7944 -0.9817
 6553TIP3   OH236230   6.206   2.115   0.742 -0.3598  0.1255  0.2287
 6553TIP3    H136231   6.136   2.052   0.724 -1.6630  1.5524  0.1238
 6553TIP3    H236232   6.286   2.063   0.736 -1.4111 -1.6942  0.8979
 6554TIP3   OH236233   3.262   5.513   7.888 -0.1079  0.0589  0.0512
 6554TIP3    H136234   3.344   5.561   7.871  1.6545 -2.8694 -0.4347
 6554TIP3    H236235   3.250   5.457   7.812 -1.8977 -0.5075  0.6875
 6555TIP3   OH236236   0.735   1.491   1.455 -0.1968  0.3883  0.0632
 6555TIP3    H136237   0.707   1.421   1.396 -1.1500 -0.0273  0.9699
 6555TIP3    H236238   0.827   1.471   1.473  0.0922  0.4894 -1.2080
 6556TIP3   OH236239   2.559   3.270   1.825 -0.7481  0.2546  0.1917
 6556TIP3    H136240   2.570   3.228   1.740 -0.5031 -0.4453  0.5554
 6556TIP3    H236241   2.640   3.319   1.838 -1.0228  0.8281 -0.2225
 6557TIP3   OH236242   5.829   4.609   1.602  0.0374 -0.4772  0.4116
 6557TIP3    H136243   5.854   4.641   1.689 -0.6589 -0.4731  0.6098
 6557TIP3    H236244   5.856   4.518   1.601  3.0193  0.2988 -0.5291
 6558TIP3   OH236245   2.785   5.705   1.635  0.3570  0.0079 -0.4734
 6558TIP3    H136246   2.705   5.681   1.681 -0.1408  0.5434 -1.0423
 6558TIP3    H236247   2.771   5.675   1.545  1.0973 -0.5470 -0.4147
 6559TIP3   OH236248   1.782   0.976   2.559  0.1959 -0.2229  0.0757
 6559TIP3    H136249   1.865   0.964   2.513  1.9415  0.3743  2.8246
 6559TIP3    H236250   1.757   1.067   2.540  1.4688  0.3745  1.0383
 6560TIP3   OH236251   0.965   5.341   8.274  0.2588  0.4540 -0.3300
 6560TIP3    H136252   1.050   5.383   8.263  1.2591 -1.4571 -0.3239
 6560TIP3    H236253   0.979   5.275   8.342 -0.8723 -0.7685 -1.2241
 6561TIP3   OH236254   1.998   6.278   7.608 -0.9204 -0.0249  0.1892
 6561TIP3    H136255   1.933   6.303   7.542  0.0222  0.6119 -0.5290
 6561TIP3    H236256   2.006   6.355   7.664 -0.4388  0.0648 -0.0055
 6562TIP3   OH236257   1.664   0.584   7.020  0.3590 -0.3790 -0.0675
 6562TIP3    H136258   1.659   0.528   7.097 -1.5769  0.8553  0.7906
 6562TIP3    H236259   1.655   0.673   7.055 -0.7080  0.2051 -1.7004
 6563TIP3   OH236260   6.275   2.365   0.099 -0.5767 -1.1940  0.0550
 6563TIP3    H136261   6.275   2.398   0.009 -3.2469  2.4313  1.1151
 6563TIP3    H236262   6.182   2.361   0.122  0.0296  0.7249  3.4442
 6564TIP3   OH236263   2.476   4.736   2.564 -0.0040 -0.2092  0.5827
 6564TIP3    H136264   2.508   4.734   2.474 -0.8684  1.5650  0.1923
 6564TIP3    H236265   2.554   4.725   2.618  0.7053  0.0118 -0.3772
 6565TIP3   OH236266   5.220   5.099   3.298  0.6137  0.0883  0.2886
 6565TIP3    H136267   5.206   5.166   3.231 -1.9494 -1.4628 -0.9313
 6565TIP3    H236268   5.305   5.118   3.335  2.1255  1.1904 -3.3303
 6566TIP3   OH236269   1.823   2.703   8.377 -0.2249  0.0305  0.1631
 6566TIP3    H136270   1.794   2.756   8.303 -1.2787  1.3381  1.4486
 6566TIP3    H236271   1.916   2.724   8.386 -0.3304  0.6653 -0.1635
 6567TIP3   OH236272   2.602   2.583   6.619  0.0933  0.2383 -0.1688
 6567TIP3    H136273   2.619   2.656   6.560  0.7982  0.3617  0.1705
 6567TIP3    H236274   2.639   2.612   6.703  2.4781 -1.3840 -0.5570
 6568TIP3   OH236275   4.591   2.582   8.759 -0.2120 -0.3027  0.9575
 6568TIP3    H136276   4.499   2.603   8.773 -0.1390  1.2366 -0.6004
 6568TIP3    H236277   4.590   2.507   8.700 -0.4874  0.4498 -0.0125
 6569TIP3   OH236278   4.889   1.684   9.324  0.4600 -0.4618  0.0326
 6569TIP3    H136279   4.886   1.759   9.383  0.0874  0.3271 -0.9725
 6569TIP3    H236280   4.968   1.696   9.272 -0.0791 -0.2796 -0.7533
 6570TIP3   OH236281   0.311   2.034   6.753 -0.1743  0.0509  0.2863
 6570TIP3    H136282   0.222   2.054   6.782  0.2805  0.6624  1.3100
 6570TIP3    H236283   0.301   1.955   6.698 -1.4975  0.8637 -0.7094
 6571TIP3   OH236284   2.982   1.181   0.718 -0.2771  0.1686 -0.2918
 6571TIP3    H136285   2.968   1.258   0.663  1.6433  0.3141 -0.6691
 6571TIP3    H236286   3.005   1.216   0.804  0.2235  0.0238 -0.3617
 6572TIP3   OH236287   0.085   2.088   6.424 -0.7051  0.4520 -0.2071
 6572TIP3    H136288   0.002   2.081   6.471 -1.3118  0.1736 -1.2873
 6572TIP3    H236289   0.110   2.180   6.433  0.6278 -0.0965  2.9666
 6573TIP3   OH236290   1.655   6.451   6.640  0.4617 -0.4980  0.3816
 6573TIP3    H136291   1.633   6.358   6.650 -1.4068 -0.3433 -1.7324
 6573TIP3    H236292   1.706   6.455   6.559  1.4800  0.2377  1.0263
 6574TIP3   OH236293   3.338   6.118   0.932  0.3231 -0.0067 -0.0549
 6574TIP3    H136294   3.413   6.161   0.890  0.5040  0.2034  0.4734
 6574TIP3    H236295   3.372   6.085   1.014 -0.7940  2.7167  1.6563
 6575TIP3   OH236296   3.316   3.884   8.083 -0.0459  0.1051  0.4699
 6575TIP3    H136297   3.383   3.839   8.135 -1.7800 -0.3501  2.4356
 6575TIP3    H236298   3.277   3.947   8.143 -1.7298 -0.0135 -0.4344
 6576TIP3   OH236299   5.346   4.937   1.583 -0.3913  0.0732 -0.3056
 6576TIP3    H136300   5.437   4.909   1.594 -1.0325 -1.7866  0.7770
 6576TIP3    H236301   5.326   4.987   1.662  0.2861  2.4912 -1.5483
 6577TIP3   OH236302   6.263   0.591   9.158  0.1704 -0.1667 -0.0376
 6577TIP3    H136303   6.260   0.533   9.234  0.7363 -1.1101 -0.7201
 6577TIP3    H236304   6.197   0.658   9.177  2.2020  1.2754  2.5707
 6578TIP3   OH236305   5.455   4.685   8.005  0.1144  1.0846  0.1938
 6578TIP3    H136306   5.490   4.601   8.034 -0.7521  0.5667 -0.2272
 6578TIP3    H236307   5.525   4.722   7.951  0.5374  0.6708  0.4476
 6579TIP3   OH236308   5.843   4.145   0.546 -0.2767 -0.0560  0.0473
 6579TIP3    H136309   5.755   4.126   0.514 -0.8846  0.7988  1.1301
 6579TIP3    H236310   5.830   4.175   0.636  1.1940 -0.5938  0.4695
 6580TIP3   OH236311   0.198   2.612   7.959 -0.0406  0.7539  0.3602
 6580TIP3    H136312   0.177   2.521   7.939  1.2281  0.5443 -0.1047
 6580TIP3    H236313   0.113   2.652   7.979 -0.6687 -0.4116  0.1420
 6581TIP3   OH236314   4.822   2.530   2.153  0.2014 -0.4855 -0.2018
 6581TIP3    H136315   4.880   2.472   2.103 -0.8981 -1.7556 -0.0385
 6581TIP3    H236316   4.833   2.502   2.244 -1.6891 -1.7264 -0.3048
 6582TIP3   OH236317   0.628   3.314   0.646  0.1147  0.1028  0.4251
 6582TIP3    H136318   0.600   3.223   0.657 -0.1778 -0.2659 -2.5529
 6582TIP3    H236319   0.548   3.361   0.621  0.6735  0.6842 -0.3296
 6583TIP3   OH236320   3.720   5.615   8.589  0.1441  0.9813  0.8355
 6583TIP3    H136321   3.792   5.677   8.577  0.0742  0.8913 -0.1154
 6583TIP3    H236322   3.641   5.669   8.580 -0.0370  0.3953 -3.1606
 6584TIP3   OH236323   0.308   1.868   7.945  0.2477 -0.2511  0.7659
 6584TIP3    H136324   0.296   1.925   7.870 -0.4001  0.4978  1.4174
 6584TIP3    H236325   0.278   1.920   8.020  0.6290 -1.0699  1.5097
 6585TIP3   OH236326   0.316   1.026   8.056 -0.0982 -0.4744  0.0771
 6585TIP3    H136327   0.371   1.013   7.979  0.0924 -0.3033  0.1836
 6585TIP3    H236328   0.286   1.116   8.050 -2.2308 -1.1775 -1.1869
 6586TIP3   OH236329   6.204   0.123   8.620  0.3662  0.5208  0.5732
 6586TIP3    H136330   6.265   0.177   8.571  0.4964  0.0517  0.2130
 6586TIP3    H236331   6.138   0.096   8.556  1.6247 -1.7644  0.1278
 6587TIP3   OH236332   5.837   2.624   6.957  0.6269 -0.6278 -0.3545
 6587TIP3    H136333   5.801   2.707   6.989  0.5440 -1.1192  0.8771
 6587TIP3    H236334   5.760   2.574   6.930  0.5117 -0.9590  0.5391
 6588TIP3   OH236335   4.641   1.435   0.877 -0.1446 -0.6513  0.3911
 6588TIP3    H136336   4.685   1.350   0.882  0.3061 -0.5473 -1.3861
 6588TIP3    H236337   4.601   1.438   0.790 -2.4406 -0.1067  1.3804
 6589TIP3   OH236338   0.205   1.802   9.224  1.0293 -0.1178  0.4826
 6589TIP3    H136339   0.255   1.725   9.250  1.9540  0.5481  0.7071
 6589TIP3    H236340   0.140   1.813   9.294  1.5926 -0.0671  0.9991
 6590TIP3   OH236341   3.240   5.388   0.779  0.1631 -0.1056 -0.9048
 6590TIP3    H136342   3.193   5.308   0.758  0.4961 -0.4383 -0.3787
 6590TIP3    H236343   3.332   5.363   0.779  0.2994  0.3748 -1.1713
 6591TIP3   OH236344   6.003   1.045   0.413 -0.4286 -0.1615  0.0604
 6591TIP3    H136345   6.094   1.073   0.425 -0.8078  0.6367  1.3565
 6591TIP3    H236346   6.002   0.954   0.442 -0.0771 -0.1108  0.2370
 6592TIP3   OH236347   0.775   2.185   1.558 -0.2471  0.2809 -0.0681
 6592TIP3    H136348   0.868   2.168   1.571 -0.2783 -0.0963 -0.3256
 6592TIP3    H236349   0.737   2.099   1.538 -0.7628  0.3237  0.6844
 6593TIP3   OH236350   1.072   4.617   6.650 -0.6185 -0.1998 -0.0061
 6593TIP3    H136351   1.141   4.674   6.683  0.9527 -2.8460  1.5861
 6593TIP3    H236352   1.107   4.583   6.567 -0.8807 -0.0620 -0.1758
 6594TIP3   OH236353   0.717   4.642   8.652  0.2004 -0.1157 -0.3957
 6594TIP3    H136354   0.637   4.646   8.704  0.0102  2.3864 -0.7560
 6594TIP3    H236355   0.687   4.621   8.563 -0.0354  0.5646 -0.4780
 6595TIP3   OH236356   4.869   2.110   7.885  0.3799  0.1955 -0.2173
 6595TIP3    H136357   4.880   2.200   7.914  0.0272 -0.4517  2.1341
 6595TIP3    H236358   4.956   2.085   7.852  1.1382  0.7027  1.2823
 6596TIP3   OH236359   2.970   5.446   8.776  0.0320  0.0988 -0.2542
 6596TIP3    H136360   3.030   5.434   8.702  0.7961 -1.8569  0.5930
 6596TIP3    H236361   3.023   5.493   8.841  1.2207 -2.7237  0.9847
 6597TIP3   OH236362   6.021   5.661   9.266 -0.1044  0.0935  0.1219
 6597TIP3    H136363   6.060   5.744   9.291 -0.5962  0.6456 -0.8743
 6597TIP3    H236364   6.092   5.597   9.273  1.2477  1.1715 -2.3019
 6598TIP3   OH236365   0.392   3.921   1.229 -0.2354  0.1067 -0.0045
 6598TIP3    H136366   0.350   3.994   1.185 -1.7985 -0.4289  0.5019
 6598TIP3    H236367   0.478   3.954   1.256  0.0413  0.9741 -1.8562
 6599TIP3   OH236368   3.076   5.438   7.615  0.2890 -0.1407  0.1358
 6599TIP3    H136369   3.122   5.375   7.559  1.8852  0.8709  0.2398
 6599TIP3    H236370   2.988   5.442   7.579 -0.0368 -2.7891  0.4344
 6600TIP3   OH236371   5.549   3.396   0.978 -0.5780  0.4349  0.1512
 6600TIP3    H136372   5.608   3.409   0.905  0.0642 -0.5482  0.4732
 6600TIP3    H236373   5.607   3.389   1.054 -1.0788 -0.8525  0.4278
 6601TIP3   OH236374   4.246   4.965   7.484  0.5730 -0.2415  0.4185
 6601TIP3    H136375   4.293   4.889   7.450 -0.5622 -1.1651  0.8323
 6601TIP3    H236376   4.180   4.984   7.417  1.1514  0.6947  0.0966
 6602TIP3   OH236377   4.479   2.738   8.978 -0.1559  0.0953 -0.0055
 6602TIP3    H136378   4.430   2.656   8.975 -0.0260 -0.1670  2.5989
 6602TIP3    H236379   4.517   2.741   9.066  0.9165  2.3573 -0.4436
 6603TIP3   OH236380   0.213   5.037   8.856  0.2686  0.9978 -0.1810
 6603TIP3    H136381   0.142   5.051   8.794 -1.4210 -1.1038  1.1355
 6603TIP3    H236382   0.170   5.038   8.942  1.8127 -0.2292  0.6605
 6604TIP3   OH236383   6.112   4.971   7.788  0.1610  0.2211 -0.2287
 6604TIP3    H136384   6.034   4.945   7.837  0.3725 -0.2414 -0.1389
 6604TIP3    H236385   6.134   5.057   7.825 -1.3971  1.2463 -1.5607
 6605TIP3   OH236386   2.784   5.062   0.032  0.2490 -0.5125  0.2732
 6605TIP3    H136387   2.721   5.080  -0.038  1.1719  1.7067 -0.0826
 6605TIP3    H236388   2.843   5.138   0.032  1.6898 -1.5315  1.9431
 6606TIP3   OH236389   5.890   5.527   7.590 -0.0990 -0.3589  0.0902
 6606TIP3    H136390   5.893   5.433   7.606 -0.7341 -0.6563 -1.4872
 6606TIP3    H236391   5.973   5.546   7.546 -0.6992 -0.4919 -1.1284
 6607TIP3   OH236392   3.387   0.298   2.049  0.2380  0.5379  0.4282
 6607TIP3    H136393   3.462   0.358   2.046  1.4062 -0.8851 -2.4801
 6607TIP3    H236394   3.345   0.309   1.964 -0.5610 -1.4968  0.5195
 6608TIP3   OH236395   1.792   2.513   9.002  0.0828 -0.0647  0.1054
 6608TIP3    H136396   1.816   2.429   8.962 -1.0811  0.3028 -1.4433
 6608TIP3    H236397   1.707   2.535   8.963 -0.3670  1.1009  1.6346
 6609TIP3   OH236398   3.192   5.671   9.229 -0.3994 -0.5698  0.6791
 6609TIP3    H136399   3.230   5.646   9.313  1.8934  0.7986  0.1514
 6609TIP3    H236400   3.159   5.760   9.243  0.6911 -0.0286 -0.0067
 6610TIP3   OH236401   4.997   4.016   8.809  0.6492 -0.2741  0.0524
 6610TIP3    H136402   5.077   3.963   8.807  0.3685 -0.7316  0.6150
 6610TIP3    H236403   4.942   3.980   8.739  0.1891 -1.1767  0.8548
 6611TIP3   OH236404   2.080   3.142   6.613  0.9282  0.2426  0.4319
 6611TIP3    H136405   2.087   3.076   6.544 -3.4090  0.6723 -0.7160
 6611TIP3    H236406   2.039   3.095   6.686  0.1227  1.0433  0.5107
 6612TIP3   OH236407   0.635   4.618   7.327 -0.5039  0.0230  0.1219
 6612TIP3    H136408   0.688   4.582   7.398 -0.1463 -0.9501 -0.6299
 6612TIP3    H236409   0.606   4.542   7.277  0.1123  0.7423 -1.3816
 6613TIP3   OH236410   0.837   1.352   0.073 -0.1447  0.1086  0.0828
 6613TIP3    H136411   0.891   1.302   0.012 -2.3925  0.6449 -2.5563
 6613TIP3    H236412   0.878   1.438   0.078  0.3396 -0.1003 -0.2490
 6614TIP3   OH236413   0.606   5.151   9.270  0.5516 -0.1131  0.0736
 6614TIP3    H136414   0.682   5.171   9.216 -0.1266  1.5219 -0.3478
 6614TIP3    H236415   0.592   5.057   9.259 -0.5619  0.3452 -3.9726
 6615TIP3   OH236416   1.435   1.062   6.241  0.1443  0.1060  0.1293
 6615TIP3    H136417   1.437   1.158   6.251  0.2253  0.0409  0.7652
 6615TIP3    H236418   1.363   1.034   6.296  1.5185 -0.3986  1.7328
 6616TIP3   OH236419   1.873   3.962   9.182 -0.4639  0.3240  0.7002
 6616TIP3    H136420   1.809   3.979   9.114  0.0067  1.9998  0.6541
 6616TIP3    H236421   1.903   4.048   9.210  0.1770 -0.3572  2.2481
 6617TIP3   OH236422   1.993   2.328   1.739 -0.2373 -0.3385  0.0561
 6617TIP3    H136423   2.076   2.281   1.733 -0.7852 -1.1104 -2.3170
 6617TIP3    H236424   2.016   2.411   1.780  1.8379 -0.3249 -1.0130
 6618TIP3   OH236425   3.333   3.598   7.975 -0.3172  0.0643 -0.2106
 6618TIP3    H136426   3.352   3.644   8.056 -1.4008 -0.0263  0.1162
 6618TIP3    H236427   3.357   3.659   7.906 -0.9373  0.7926  0.2079
 6619TIP3   OH236428   3.828   4.181   0.559 -0.2181 -0.4192 -0.4914
 6619TIP3    H136429   3.787   4.156   0.476 -0.4078 -0.9491 -0.2428
 6619TIP3    H236430   3.851   4.098   0.601 -2.5777 -0.3070  1.2193
 6620TIP3   OH236431   4.357   0.317   0.099 -0.4600 -0.7078 -0.3891
 6620TIP3    H136432   4.400   0.264   0.166 -1.4433  0.2786  1.0630
 6620TIP3    H236433   4.264   0.298   0.109 -0.6740 -0.0486 -1.0255
 6621TIP3   OH236434   1.089   1.665   6.233  0.4349 -0.4888  0.1312
 6621TIP3    H136435   1.131   1.589   6.273  1.1077  0.0660  0.4992
 6621TIP3    H236436   1.161   1.725   6.213 -0.1725  0.5656  0.9531
 6622TIP3   OH236437   2.685   2.117   8.144  0.1597 -0.1942 -0.3188
 6622TIP3    H136438   2.649   2.035   8.112  1.8590 -0.5512 -1.4263
 6622TIP3    H236439   2.681   2.176   8.069  0.4505  0.2384  0.0001
 6623TIP3   OH236440   2.115   4.897   1.346 -0.8729  0.2502 -0.4911
 6623TIP3    H136441   2.071   4.813   1.362  2.6093 -1.7945 -0.6963
 6623TIP3    H236442   2.075   4.930   1.266 -2.0067 -1.4624 -0.6731
 6624TIP3   OH236443   6.351   4.091   3.050  0.3095  0.6309  0.0394
 6624TIP3    H136444   6.334   4.118   2.959  0.2304 -1.5386 -0.6480
 6624TIP3    H236445   6.446   4.097   3.059  0.4323 -0.1293 -0.5651
 6625TIP3   OH236446   2.765   1.880   1.887  0.2457  0.6324 -0.1334
 6625TIP3    H136447   2.782   1.800   1.836 -0.2893  0.5968 -0.2570
 6625TIP3    H236448   2.844   1.892   1.940 -0.7999 -1.6262  2.1290
 6626TIP3   OH236449   1.274   3.610   8.551  0.2015  0.0689 -0.5999
 6626TIP3    H136450   1.187   3.650   8.563  0.7612  1.0381  0.3669
 6626TIP3    H236451   1.332   3.660   8.608  1.4131 -0.5745 -1.2257
 6627TIP3   OH236452   4.516   6.432   8.888  0.3613  0.1612 -0.2592
 6627TIP3    H136453   4.609   6.425   8.870  0.6651  0.3339  1.1508
 6627TIP3    H236454   4.474   6.428   8.801  1.6409 -0.2324 -0.8770
 6628TIP3   OH236455   2.690   3.244   9.055 -0.0163 -0.1184 -0.2793
 6628TIP3    H136456   2.693   3.338   9.072 -0.6401 -0.3413  1.3086
 6628TIP3    H236457   2.677   3.205   9.142  0.1728 -1.6636 -0.9159
 6629TIP3   OH236458   0.574   5.456   6.544 -0.2084  0.1168 -0.2870
 6629TIP3    H136459   0.564   5.546   6.572 -0.5342 -0.2189  0.6811
 6629TIP3    H236460   0.545   5.456   6.453  0.4886  1.1255 -0.5309
 6630TIP3   OH236461   3.888   0.847   0.792 -0.0383 -0.2013  0.0741
 6630TIP3    H136462   3.800   0.886   0.797  0.5495  1.0069  1.7913
 6630TIP3    H236463   3.947   0.920   0.806  1.2336 -1.1948  0.0151
 6631TIP3   OH236464   2.063   6.147   0.252  0.0284  0.0111  0.4393
 6631TIP3    H136465   1.992   6.097   0.213 -0.0206  1.1878 -1.0582
 6631TIP3    H236466   2.133   6.144   0.187  1.5983 -1.5237  2.0780
 6632TIP3   OH236467   2.807   1.123   7.735 -0.1130  0.8012 -0.7271
 6632TIP3    H136468   2.780   1.215   7.732 -0.4409  0.7447  0.2350
 6632TIP3    H236469   2.901   1.126   7.751  0.0488  0.9741 -1.6743
 6633TIP3   OH236470   4.691   0.385   6.922  0.0648  0.1212  0.0946
 6633TIP3    H136471   4.657   0.356   7.007 -2.8688  1.3868 -0.4935
 6633TIP3    H236472   4.613   0.391   6.866  1.2934  2.9391 -1.5708
 6634TIP3   OH236473   0.571   0.648   7.411 -0.4135  0.2449  0.5084
 6634TIP3    H136474   0.600   0.700   7.336  1.0131  0.2546  1.0234
 6634TIP3    H236475   0.479   0.671   7.422 -0.2559  1.3715 -0.3210
 6635TIP3   OH236476   6.070   3.264   0.027 -0.2205 -0.0291 -0.5948
 6635TIP3    H136477   6.093   3.353   0.002 -0.7074  0.0686 -0.7031
 6635TIP3    H236478   6.054   3.268   0.121  0.3818 -0.1379 -0.4828
 6636TIP3   OH236479   5.302   2.017   1.268 -0.0841  0.2325 -0.4742
 6636TIP3    H136480   5.256   2.053   1.193 -0.3686 -0.3686 -0.5933
 6636TIP3    H236481   5.243   1.950   1.303  1.1037 -1.2465 -1.2205
 6637TIP3   OH236482   5.734   5.244   1.319  0.4627  0.1070  0.2037
 6637TIP3    H136483   5.719   5.313   1.254 -1.2083  0.3668  0.7879
 6637TIP3    H236484   5.759   5.292   1.398 -2.0599  0.2662  1.0138
 6638TIP3   OH236485   1.165   6.268   7.552 -0.3375 -0.0307  0.1862
 6638TIP3    H136486   1.254   6.304   7.548  0.4913 -1.7921  1.2771
 6638TIP3    H236487   1.151   6.230   7.465 -0.1804  0.5924 -0.1158
 6639TIP3   OH236488   3.537   3.233   7.693 -0.1479 -0.3587  0.3429
 6639TIP3    H136489   3.525   3.291   7.768  2.5028 -1.1029  1.4606
 6639TIP3    H236490   3.458   3.178   7.692 -0.9312  0.6956  1.6071
 6640TIP3   OH236491   2.673   1.008   6.090 -0.4162  0.3233 -0.0162
 6640TIP3    H136492   2.754   1.057   6.105 -1.0358  1.3396  0.1450
 6640TIP3    H236493   2.637   1.046   6.010  0.1710 -1.3850 -1.1495
 6641TIP3   OH236494   0.490   6.337   0.748  0.2769 -0.1908  0.0670
 6641TIP3    H136495   0.551   6.269   0.773  0.9604  0.5574  0.4667
 6641TIP3    H236496   0.415   6.326   0.807  0.1640 -0.8798 -0.1906
 6642TIP3   OH236497   1.442   5.429   1.110 -0.2223  0.1656 -0.3698
 6642TIP3    H136498   1.399   5.363   1.165 -0.0805 -1.2754 -1.9282
 6642TIP3    H236499   1.372   5.491   1.088 -0.6121 -0.0602  0.2006
 6643TIP3   OH236500   1.697   5.269   2.180  0.0109 -0.0994 -0.3308
 6643TIP3    H136501   1.739   5.333   2.238 -0.4523  0.5958 -0.7466
 6643TIP3    H236502   1.650   5.322   2.116  2.9593 -0.7546 -3.2771
 6644TIP3   OH236503   1.960   4.351   8.642  0.2275 -0.3345  0.4174
 6644TIP3    H136504   1.969   4.265   8.682  1.9488 -0.3989 -0.0197
 6644TIP3    H236505   1.869   4.355   8.614 -0.2523 -1.4327  1.7241
 6645TIP3   OH236506   6.260   1.520   7.431 -0.1234  0.3768 -0.4858
 6645TIP3    H136507   6.233   1.531   7.340 -0.4899  2.1231 -0.2132
 6645TIP3    H236508   6.346   1.563   7.436 -0.5374  1.1604  0.1762
 6646TIP3   OH236509   1.872   6.424   8.930 -0.1113 -0.1964 -0.5373
 6646TIP3    H136510   1.896   6.334   8.952 -0.7875  0.2586  2.5549
 6646TIP3    H236511   1.942   6.455   8.873  0.4744 -2.4386 -1.1204
 6647TIP3   OH236512   2.903   1.433   1.076 -0.3027 -0.8110  0.1685
 6647TIP3    H136513   2.904   1.357   1.133 -0.7408 -0.9214  0.0341
 6647TIP3    H236514   2.821   1.477   1.097 -0.2929 -0.6545 -0.1173
 6648TIP3   OH236515   2.872   2.788   8.275 -0.6690  0.4566  0.5065
 6648TIP3    H136516   2.917   2.866   8.305 -2.1801  0.8874  1.7711
 6648TIP3    H236517   2.825   2.816   8.196  0.4546  0.2426 -0.2687
 6649TIP3   OH236518   2.018   0.170   8.303 -0.3487 -0.4060 -0.1542
 6649TIP3    H136519   1.938   0.179   8.252 -1.4922 -0.0809  1.6181
 6649TIP3    H236520   2.060   0.091   8.267 -0.4164  0.5009 -2.4035
 6650TIP3   OH236521   2.967   1.945   7.975  0.2208  0.3125  0.4571
 6650TIP3    H136522   2.987   1.950   8.068 -0.3502 -0.6430  0.6436
 6650TIP3    H236523   2.974   1.851   7.954 -1.3544  0.2915 -0.0577
 6651TIP3   OH236524   1.648   5.025   8.445  0.0861 -0.5475  0.1548
 6651TIP3    H136525   1.716   5.092   8.446 -0.7000  0.2674  0.2276
 6651TIP3    H236526   1.586   5.053   8.512 -0.5582 -1.0242 -0.2342
 6652TIP3   OH236527   3.825   4.008   9.240 -0.0929  0.2653 -0.2733
 6652TIP3    H136528   3.836   4.062   9.162  1.0106  2.1342  1.0845
 6652TIP3    H236529   3.731   3.991   9.244 -0.4374  1.8009 -0.9842
 6653TIP3   OH236530   0.824   1.128   1.581 -0.4699  0.6181  0.6495
 6653TIP3    H136531   0.905   1.167   1.615 -0.2163 -1.0135  2.0319
 6653TIP3    H236532   0.847   1.098   1.494  0.2037  0.8462  0.7414
 6654TIP3   OH236533   4.960   0.144   7.233 -0.1194  0.0150  0.4497
 6654TIP3    H136534   4.879   0.092   7.228 -1.8897  2.5412  0.8340
 6654TIP3    H236535   5.000   0.117   7.315  0.0248 -2.0162 -0.2248
 6655TIP3   OH236536   3.239   1.943   2.191  0.3987 -0.4373  0.7929
 6655TIP3    H136537   3.286   1.914   2.269  1.8345  0.1238  0.1661
 6655TIP3    H236538   3.181   2.013   2.223 -1.5527 -2.4454  1.9285
 6656TIP3   OH236539   0.943   1.417   1.169 -0.3628  0.0083 -0.4633
 6656TIP3    H136540   0.871   1.402   1.108 -0.1710 -1.2783 -0.4058
 6656TIP3    H236541   0.937   1.345   1.232  1.0719 -0.2480 -0.5718
 6657TIP3   OH236542   4.045   4.268   1.941 -0.1812 -0.4750 -0.0157
 6657TIP3    H136543   4.087   4.182   1.943  0.3374 -0.3413 -2.2940
 6657TIP3    H236544   4.115   4.330   1.962 -0.0854 -0.4944 -0.2723
 6658TIP3   OH236545   1.411   2.260   0.179 -0.1039  0.3279 -0.2171
 6658TIP3    H136546   1.394   2.331   0.117  1.2853  1.7006  0.8935
 6658TIP3    H236547   1.331   2.257   0.232 -1.5581 -1.2660 -2.3398
 6659TIP3   OH236548   4.800   3.754   1.384  0.0065 -0.1021 -0.2775
 6659TIP3    H136549   4.762   3.839   1.362 -2.2256 -1.0024 -0.2218
 6659TIP3    H236550   4.882   3.774   1.427  0.5155  1.9546 -2.0418
 6660TIP3   OH236551   3.292   6.162   2.217 -0.4809  0.0718  1.1552
 6660TIP3    H136552   3.243   6.221   2.159  0.5970 -0.5984 -0.4745
 6660TIP3    H236553   3.230   6.092   2.237 -0.9727  0.4878  1.1257
 6661TIP3   OH236554   5.336   0.887   6.371  0.0544  0.7047 -0.7265
 6661TIP3    H136555   5.400   0.958   6.369  0.8102  0.0323 -0.8088
 6661TIP3    H236556   5.377   0.815   6.323 -1.0691  0.5048 -1.4351
 6662TIP3   OH236557   3.134   0.928   7.732  0.2416  0.2420  0.0411
 6662TIP3    H136558   3.214   0.893   7.693  0.6966  1.0992  0.1715
 6662TIP3    H236559   3.064   0.902   7.672  0.4593 -1.4222  0.4643
 6663TIP3   OH236560   5.656   3.746   8.117  0.3567  0.3569 -0.0756
 6663TIP3    H136561   5.645   3.670   8.175  0.3263  0.7885  0.4880
 6663TIP3    H236562   5.749   3.767   8.123  0.5662 -0.2281 -0.9944
 6664TIP3   OH236563   1.914   0.910   7.041 -0.1488 -0.0794  0.2803
 6664TIP3    H136564   1.906   0.822   7.004 -0.5258  0.1110 -0.1083
 6664TIP3    H236565   2.008   0.929   7.038  0.0141 -0.7215  0.9769
 6665TIP3   OH236566   3.376   0.704   6.623  0.2285  0.2517 -0.2643
 6665TIP3    H136567   3.401   0.628   6.570 -0.0286  0.0006 -0.0269
 6665TIP3    H236568   3.458   0.733   6.664  0.4317  0.4540 -0.8016
 6666TIP3   OH236569   5.038   2.732   8.819  0.2124 -0.7638 -0.2441
 6666TIP3    H136570   5.042   2.815   8.868 -1.4476 -1.8876  1.9896
 6666TIP3    H236571   4.954   2.694   8.845  0.1463 -2.3745 -2.5809
 6667TIP3   OH236572   6.170   3.661   0.749  0.4134  0.0032  0.0876
 6667TIP3    H136573   6.260   3.630   0.753 -0.0458 -1.2941  1.5132
 6667TIP3    H236574   6.156   3.705   0.833 -0.3404  0.0215 -0.0391
 6668TIP3   OH236575   5.820   0.582   8.153  0.2306 -0.1060 -0.0518
 6668TIP3    H136576   5.790   0.528   8.226  0.5740  0.5903  0.6214
 6668TIP3    H236577   5.776   0.546   8.076 -0.6109 -0.4700  0.5896
 6669TIP3   OH236578   6.189   5.248   7.804  0.0130 -0.5229 -0.2715
 6669TIP3    H136579   6.161   5.283   7.889 -0.2647  0.2567 -0.6796
 6669TIP3    H236580   6.232   5.321   7.761  2.5429 -1.6187  0.2293
 6670TIP3   OH236581   3.523   4.529   1.603  0.3459 -0.1901  0.5959
 6670TIP3    H136582   3.454   4.493   1.547  0.5072  0.0845  0.2185
 6670TIP3    H236583   3.515   4.624   1.594  1.0609 -0.1626  0.1923
 6671TIP3   OH236584   6.247   2.512   8.535  0.2778 -0.5176  0.5601
 6671TIP3    H136585   6.197   2.435   8.506  1.6141 -1.2107  0.0272
 6671TIP3    H236586   6.303   2.534   8.461  1.5990 -0.4716  1.5451
 6672TIP3   OH236587   1.606   3.920   3.281  1.1057  0.3770 -0.6940
 6672TIP3    H136588   1.515   3.911   3.308  0.8817 -0.4805 -1.6856
 6672TIP3    H236589   1.603   3.977   3.204  1.5384  1.2365 -0.0983
 6673TIP3   OH236590   4.428   6.358   8.445  0.1081 -0.4044  0.1296
 6673TIP3    H136591   4.371   6.391   8.515 -0.0044 -1.0122  0.3313
 6673TIP3    H236592   4.382   6.381   8.364 -0.2337 -0.5436  0.2815
 6674TIP3   OH236593   5.784   4.912   8.434 -0.3478 -0.3642  0.3419
 6674TIP3    H136594   5.775   4.817   8.427  2.2694 -0.5971 -1.0802
 6674TIP3    H236595   5.842   4.936   8.361  1.5834  1.8878  2.4516
 6675TIP3   OH236596   6.333   3.392   1.858  0.0649 -0.0667 -0.5621
 6675TIP3    H136597   6.314   3.330   1.928  1.4081 -1.2273 -1.1703
 6675TIP3    H236598   6.280   3.469   1.878 -2.1636 -1.6300 -0.1420
 6676TIP3   OH236599   1.048   3.336   1.104  0.1694 -0.1906 -0.4642
 6676TIP3    H136600   1.108   3.262   1.108  0.9140  0.4511  0.6541
 6676TIP3    H236601   1.102   3.409   1.072  0.2368  0.6005  1.3481
 6677TIP3   OH236602   6.188   6.347   8.307  0.5300 -0.0307  0.2879
 6677TIP3    H136603   6.201   6.441   8.316  0.9937 -0.0718  0.0728
 6677TIP3    H236604   6.104   6.330   8.351  0.2794  0.5254  0.0353
 6678TIP3   OH236605   4.649   4.385   0.678 -0.3732 -0.3526 -0.4335
 6678TIP3    H136606   4.738   4.358   0.654 -0.8269 -1.9562 -0.4035
 6678TIP3    H236607   4.661   4.445   0.751  0.6612 -1.3095  0.2243
 6679TIP3   OH236608   0.212   6.127   7.089  0.3660  0.3917 -0.0853
 6679TIP3    H136609   0.220   6.124   7.184 -0.2382 -0.6305 -0.0445
 6679TIP3    H236610   0.293   6.087   7.057 -0.4221 -1.4264  0.0812
 6680TIP3   OH236611   0.057   5.475   8.798 -0.1197  0.6984  0.0843
 6680TIP3    H136612   0.143   5.501   8.766  1.8934 -2.6190  2.2151
 6680TIP3    H236613   0.017   5.429   8.724  0.8773  0.4036 -0.2872
 6681TIP3   OH236614   2.684   3.577   8.341 -0.5349 -0.2665  0.1231
 6681TIP3    H136615   2.765   3.536   8.312 -1.3510 -1.5960 -0.4103
 6681TIP3    H236616   2.709   3.665   8.368  1.3655 -1.1808  1.5823
 6682TIP3   OH236617   2.311   5.438   7.828  0.1207 -0.1918 -0.0213
 6682TIP3    H136618   2.220   5.416   7.804  0.8641 -2.4589 -1.1117
 6682TIP3    H236619   2.304   5.517   7.880 -2.5519 -0.6609  0.4696
 6683TIP3   OH236620   3.455   2.386   0.351  0.4212  0.3516 -0.8117
 6683TIP3    H136621   3.465   2.416   0.442 -1.3246  0.4472 -0.6245
 6683TIP3    H236622   3.510   2.445   0.300  0.2978  1.2168  0.0338
 6684TIP3   OH236623   1.208   0.145   9.002  0.6657  0.7361  1.0745
 6684TIP3    H136624   1.130   0.120   8.952  2.8780 -0.5104 -2.0763
 6684TIP3    H236625   1.179   0.218   9.056 -2.5315  0.7432 -0.4225
 6685TIP3   OH236626   5.940   0.590   8.984 -0.4353  0.1192 -0.3804
 6685TIP3    H136627   5.972   0.673   9.020 -2.3332  0.7028  0.0448
 6685TIP3    H236628   6.003   0.568   8.916  0.0595  1.9560 -0.5644
 6686TIP3   OH236629   0.023   0.857   8.970  0.3639 -0.0386 -0.2156
 6686TIP3    H136630  -0.019   0.782   9.012 -0.8547 -0.1869 -1.6319
 6686TIP3    H236631   0.071   0.901   9.041  1.2678 -2.2403  0.6109
 6687TIP3   OH236632   5.555   2.112   8.878  0.0889 -0.3597  0.0869
 6687TIP3    H136633   5.630   2.096   8.820  1.6089 -1.1623  2.1281
 6687TIP3    H236634   5.482   2.129   8.819  1.6737 -0.4584 -2.0256
 6688TIP3   OH236635   5.508   1.632   1.142 -0.3881 -0.2911  0.7662
 6688TIP3    H136636   5.454   1.555   1.162 -0.5971 -0.1813  0.6288
 6688TIP3    H236637   5.570   1.601   1.076 -0.7668 -0.2269  0.3724
 6689TIP3   OH236638   5.530   6.358   8.152  0.4212 -0.2592  0.0538
 6689TIP3    H136639   5.578   6.438   8.131 -1.0393 -0.0923 -3.3633
 6689TIP3    H236640   5.474   6.382   8.226  1.0532  1.4364  0.0183
 6690TIP3   OH236641   0.111   2.222   8.543  0.7815 -0.7369  0.4276
 6690TIP3    H136642   0.130   2.269   8.624  0.6375 -0.6464  0.4088
 6690TIP3    H236643   0.159   2.269   8.475  0.2718 -0.3461  0.3359
 6691TIP3   OH236644   1.327   0.718   2.393  0.5648  0.1987  0.7038
 6691TIP3    H136645   1.300   0.629   2.418  0.2561  0.4514  1.2957
 6691TIP3    H236646   1.391   0.705   2.324  0.0763 -0.4673  0.3638
 6692TIP3   OH236647   0.238   4.285   9.150 -0.0496  0.1662  0.3318
 6692TIP3    H136648   0.286   4.222   9.095  0.0925  0.8964 -0.3941
 6692TIP3    H236649   0.305   4.347   9.178 -0.1093 -0.2376  1.4017
 6693TIP3   OH236650   4.906   4.380   2.347  0.1064  0.1941 -0.1933
 6693TIP3    H136651   4.864   4.299   2.319 -1.8720  0.7126  1.0455
 6693TIP3    H236652   4.941   4.360   2.435 -0.4090  0.6746  0.1242
 6694TIP3   OH236653   4.094   4.145   9.301  0.5924  0.0282 -0.2754
 6694TIP3    H136654   4.044   4.159   9.221 -0.3369 -1.0922  0.0952
 6694TIP3    H236655   4.159   4.216   9.301  0.7479 -0.0719 -2.1073
 6695TIP3   OH236656   1.592   1.328   9.309 -0.3016  0.2020  0.1252
 6695TIP3    H136657   1.601   1.255   9.370  0.9109  0.7718  0.6603
 6695TIP3    H236658   1.673   1.378   9.319 -0.5444  0.9046 -1.1811
 6696TIP3   OH236659   1.078   1.810   0.828 -0.7128 -0.1155 -0.4209
 6696TIP3    H136660   1.172   1.813   0.844 -0.9943  0.9978  1.4024
 6696TIP3    H236661   1.054   1.901   0.809 -1.3842 -0.4227 -1.0539
 6697TIP3   OH236662   4.559   1.051   2.496 -0.0927  0.8608 -0.0405
 6697TIP3    H136663   4.594   1.137   2.473  1.4385  0.0987 -0.6969
 6697TIP3    H236664   4.584   1.039   2.588 -1.5117  1.6564  0.4823
 6698TIP3   OH236665   2.374   4.098   0.888 -0.1727  0.4514  0.0394
 6698TIP3    H136666   2.461   4.131   0.865  0.2438  0.7086  1.8048
 6698TIP3    H236667   2.381   4.003   0.874  0.2151  0.5298 -0.3296
 6699TIP3   OH236668   4.196   5.575   0.839 -0.7608  0.0150 -0.3344
 6699TIP3    H136669   4.218   5.587   0.932 -1.7601  0.6397 -0.1672
 6699TIP3    H236670   4.193   5.480   0.827  3.2825 -0.2384 -0.7023
 6700TIP3   OH236671   0.863   2.628   7.630  0.0634  0.0916 -0.3767
 6700TIP3    H136672   0.877   2.711   7.584 -0.6873  0.5224  0.1526
 6700TIP3    H236673   0.854   2.563   7.561 -0.9304  0.7123 -0.8513
 6701TIP3   OH236674   2.599   4.887   7.511 -0.2129 -0.1930 -0.0130
 6701TIP3    H136675   2.676   4.932   7.546 -1.0516  0.4407  1.0737
 6701TIP3    H236676   2.635   4.814   7.460  1.1084  0.3701  0.0727
 6702TIP3   OH236677   2.621   5.523   6.848  0.0072 -0.0361 -0.0977
 6702TIP3    H136678   2.538   5.538   6.803 -0.2710  0.5793  0.6052
 6702TIP3    H236679   2.632   5.428   6.847 -0.0209 -0.0477 -1.3955
 6703TIP3   OH236680   3.001   2.013   0.934 -0.4493 -0.1120 -0.3699
 6703TIP3    H136681   2.941   2.028   0.861 -2.2856 -0.7465  0.9264
 6703TIP3    H236682   2.944   2.007   1.011  1.4847  2.0512  1.3924
 6704TIP3   OH236683   5.935   2.997   2.008 -0.5957  0.6992  0.3068
 6704TIP3    H136684   6.010   2.968   1.957  0.2688  1.8714  0.8492
 6704TIP3    H236685   5.874   3.031   1.943 -0.5533 -0.0214 -0.1181
 6705TIP3   OH236686   4.401   6.065   9.080  0.2734 -0.1171  0.0170
 6705TIP3    H136687   4.372   6.085   8.991 -0.1148  1.4926  0.4674
 6705TIP3    H236688   4.442   6.146   9.111 -1.3263  0.0598  1.9655
 6706TIP3   OH236689   2.789   2.090   2.627  0.0852  0.2838 -0.5319
 6706TIP3    H136690   2.696   2.111   2.632  0.0919  0.5732 -1.4265
 6706TIP3    H236691   2.817   2.124   2.542  0.9690  0.0446 -0.3493
 6707TIP3   OH236692   3.294   1.762   0.026  0.1738 -0.0746 -0.1218
 6707TIP3    H136693   3.347   1.700  -0.023  0.6119 -1.9514  2.5216
 6707TIP3    H236694   3.204   1.741   0.002  0.3447 -1.4433  0.3729
 6708TIP3   OH236695   0.824   5.533   1.010  0.4238  0.2295  0.3400
 6708TIP3    H136696   0.743   5.512   1.056  1.3318  0.9912  2.4264
 6708TIP3    H236697   0.797   5.553   0.921 -1.5271 -0.6578  0.6899
 6709TIP3   OH236698   5.700   1.368   0.772  0.6174 -0.0363  0.0924
 6709TIP3    H136699   5.748   1.295   0.734  1.2592  0.5477 -0.2412
 6709TIP3    H236700   5.753   1.445   0.753  0.1159  0.4849  0.7180
 6710TIP3   OH236701   6.251   4.330   7.300 -0.3415  0.2123 -0.3299
 6710TIP3    H136702   6.264   4.386   7.377 -0.1066  0.1857 -0.3500
 6710TIP3    H236703   6.241   4.242   7.336 -2.7245  0.4896 -0.1312
 6711TIP3   OH236704   2.689   3.138   8.493 -0.1901  0.2940 -0.1473
 6711TIP3    H136705   2.728   3.126   8.406  1.2353 -1.3323  0.6433
 6711TIP3    H236706   2.608   3.185   8.477  0.0121 -0.0139 -2.3675
 6712TIP3   OH236707   0.299   3.578   6.890  0.5242  0.4527 -0.0726
 6712TIP3    H136708   0.371   3.555   6.949  0.8129 -1.1896 -1.0095
 6712TIP3    H236709   0.310   3.672   6.874  2.7537  0.1535 -0.5627
 6713TIP3   OH236710   0.636   3.073   6.339 -0.1463 -0.3437 -0.3277
 6713TIP3    H136711   0.671   3.024   6.264  0.5815  0.6793 -0.6807
 6713TIP3    H236712   0.677   3.159   6.332 -3.2449  1.2059 -1.1647
 6714TIP3   OH236713   1.796   6.121   8.969 -0.1118 -0.5849 -0.8291
 6714TIP3    H136714   1.814   6.163   9.052  0.0282 -1.2559 -0.5108
 6714TIP3    H236715   1.878   6.078   8.945  0.1762  0.4891 -1.8560
 6715TIP3   OH236716   0.934   5.700  -0.005 -0.0739  0.1278 -0.9380
 6715TIP3    H136717   1.020   5.741  -0.018  0.0752  1.2225  2.5362
 6715TIP3    H236718   0.951   5.628   0.056 -1.2846 -1.4894 -2.3853
 6716TIP3   OH236719   2.322   3.412   1.381  0.0861 -0.0137  0.4021
 6716TIP3    H136720   2.363   3.422   1.295 -0.3863 -2.2251 -0.1483
 6716TIP3    H236721   2.238   3.457   1.372  0.1607  0.0208 -0.1858
 6717TIP3   OH236722   2.565   2.658   7.354  0.6194  0.1757  0.3411
 6717TIP3    H136723   2.530   2.742   7.324  2.0035  0.3938 -0.8172
 6717TIP3    H236724   2.499   2.624   7.414 -1.5944  0.4974 -1.7456
 6718TIP3   OH236725   2.996   3.227   0.309  0.2223  0.3475  0.4272
 6718TIP3    H136726   2.950   3.308   0.290 -1.3108 -0.4773  0.4555
 6718TIP3    H236727   3.076   3.231   0.256 -0.1614  1.5516 -0.0842
 6719TIP3   OH236728   5.261   5.115   1.826 -0.1221  0.5710  0.0207
 6719TIP3    H136729   5.206   5.190   1.801 -0.2004 -0.0137 -1.6743
 6719TIP3    H236730   5.212   5.072   1.896 -1.7248  0.2417 -1.2455
 6720TIP3   OH236731   3.426   1.781   6.683 -0.0840  0.4679 -0.2275
 6720TIP3    H136732   3.463   1.862   6.718 -1.2593  0.8676  0.1400
 6720TIP3    H236733   3.498   1.717   6.689  0.6389  1.2927  0.1343
 6721TIP3   OH236734   1.098   5.874   8.702 -0.4787 -0.3180 -0.2233
 6721TIP3    H136735   1.176   5.913   8.741 -0.2244 -0.9959 -0.0520
 6721TIP3    H236736   1.033   5.875   8.773 -0.6900  0.3976 -0.4141
 6722TIP3   OH236737   5.230   1.762   1.081 -0.2227  0.5081  0.1383
 6722TIP3    H136738   5.187   1.808   1.154 -2.1231 -2.1449  0.8506
 6722TIP3    H236739   5.323   1.780   1.092 -0.1415 -1.3326  4.5339
 6723TIP3   OH236740   5.055   5.359   7.834 -0.1418  0.5945 -0.1025
 6723TIP3    H136741   5.049   5.277   7.786 -2.1959  1.0924 -0.8243
 6723TIP3    H236742   5.049   5.334   7.926  1.3640 -0.1871 -0.1923
 6724TIP3   OH236743   1.776   0.343   7.599 -0.1878 -0.2048  0.1470
 6724TIP3    H136744   1.849   0.316   7.544 -0.5625 -2.6874  0.7448
 6724TIP3    H236745   1.714   0.384   7.538  0.1789 -1.2817 -0.9882
 6725TIP3   OH236746   1.519   0.667   3.188 -0.6798 -0.2268  0.6192
 6725TIP3    H136747   1.600   0.677   3.138 -0.8706 -1.7266 -0.0347
 6725TIP3    H236748   1.547   0.659   3.279 -0.1208 -0.4004  0.4326
 6726TIP3   OH236749   2.578   3.195   1.153  0.1616 -0.4594  0.1938
 6726TIP3    H136750   2.658   3.146   1.174 -0.5647 -1.7059  0.1499
 6726TIP3    H236751   2.512   3.159   1.212 -0.5446  0.0302 -0.2847
 6727TIP3   OH236752   5.505   0.533   8.056 -0.5944 -0.4803 -0.4471
 6727TIP3    H136753   5.530   0.471   8.124  0.0944  0.6682  0.3872
 6727TIP3    H236754   5.507   0.483   7.975 -2.0710 -2.0557  0.4266
 6728TIP3   OH236755   3.286   5.470   2.828 -0.1314  0.5580 -0.5381
 6728TIP3    H136756   3.203   5.426   2.846 -0.2471  1.0662  0.1706
 6728TIP3    H236757   3.351   5.400   2.835 -0.3027  0.4942  0.6663
 6729TIP3   OH236758   3.663   0.937   2.132 -0.0863  0.3865  0.1365
 6729TIP3    H136759   3.748   0.902   2.106 -0.5575  0.4503 -1.5806
 6729TIP3    H236760   3.600   0.893   2.074 -1.0399  1.6029  0.2120
 6730TIP3   OH236761   1.223   5.837   1.973  0.3395 -0.9565 -0.4536
 6730TIP3    H136762   1.259   5.754   1.943  1.0604 -0.7667 -0.1399
 6730TIP3    H236763   1.281   5.864   2.044  0.9949  0.5266 -1.4990
 6731TIP3   OH236764   4.919   2.300   6.455 -0.3935  0.6099 -0.3522
 6731TIP3    H136765   4.859   2.331   6.387 -2.5069 -1.6347  0.3351
 6731TIP3    H236766   4.862   2.265   6.523  1.6705 -1.3784  0.4996
 6732TIP3   OH236767   4.356   1.615   1.684 -0.1214  0.2663 -0.2688
 6732TIP3    H136768   4.398   1.693   1.647 -0.5191  1.0151  0.7998
 6732TIP3    H236769   4.353   1.553   1.612  0.6465  1.0695 -1.0143
 6733TIP3   OH236770   3.960   2.411   1.613 -0.8580  0.2282  0.7439
 6733TIP3    H136771   4.034   2.469   1.624  0.2187 -0.8000 -0.6514
 6733TIP3    H236772   3.885   2.469   1.603 -0.1805  1.2954  1.7371
 6734TIP3   OH236773   4.523   1.740   7.478 -0.6587  0.0311 -0.2469
 6734TIP3    H136774   4.521   1.650   7.511 -1.0703  0.6112  1.3908
 6734TIP3    H236775   4.475   1.736   7.395 -0.0525 -1.3748 -0.5722
 6735TIP3   OH236776   0.278   0.915   1.380  0.0386  0.5046 -0.2166
 6735TIP3    H136777   0.262   0.881   1.292  1.0682  1.4697 -0.8107
 6735TIP3    H236778   0.324   0.844   1.425  2.2127  1.0430 -1.4535
 6736TIP3   OH236779   0.736   4.250   1.830 -0.2134  0.3312  0.0584
 6736TIP3    H136780   0.661   4.194   1.812  0.3005 -1.0737  1.9137
 6736TIP3    H236781   0.735   4.261   1.925 -0.8566  4.3988 -0.2638
 6737TIP3   OH236782   1.039   2.600   2.087  0.3825 -0.1857 -0.1863
 6737TIP3    H136783   1.115   2.611   2.029  0.1234 -0.3754 -0.5685
 6737TIP3    H236784   1.027   2.505   2.093 -0.8612 -0.1491 -1.5243
 6738TIP3   OH236785   3.178   1.257   9.249  0.0929  1.2503  0.0286
 6738TIP3    H136786   3.213   1.221   9.168  0.5080  1.1656  0.2452
 6738TIP3    H236787   3.183   1.184   9.312 -0.9585  1.0676 -0.0705
 6739TIP3   OH236788   0.594   1.251   7.991  0.9131  0.2083  0.1703
 6739TIP3    H136789   0.676   1.299   7.992 -0.5789  3.0715 -1.6084
 6739TIP3    H236790   0.596   1.203   7.908  0.0558  1.8773 -0.8733
 6740TIP3   OH236791   1.764   0.811   1.187 -0.0255  0.2258 -0.2612
 6740TIP3    H136792   1.683   0.841   1.146  1.4035  2.6426 -1.5638
 6740TIP3    H236793   1.800   0.746   1.126 -1.1680 -1.2186  0.5608
 6741TIP3   OH236794   1.518   4.383   8.182  0.3392 -0.5273  0.2188
 6741TIP3    H136795   1.576   4.387   8.259 -0.2081  1.0610  0.5875
 6741TIP3    H236796   1.564   4.433   8.115 -0.5250  0.6612  0.4833
 6742TIP3   OH236797   4.112   2.992   7.215 -0.3157  0.5585 -0.3763
 6742TIP3    H136798   4.188   3.043   7.187  0.7133  0.2484  1.7199
 6742TIP3    H236799   4.123   2.907   7.174  1.2628  0.0449  1.0409
 6743TIP3   OH236800   2.058   1.805   2.132  0.0532 -0.3509 -0.9673
 6743TIP3    H136801   2.080   1.869   2.064 -1.2812 -0.3109 -1.3913
 6743TIP3    H236802   2.061   1.855   2.214  0.2091 -0.0336 -1.1670
 6744TIP3   OH236803   0.961   4.940   1.884  0.4046  0.5222  0.6281
 6744TIP3    H136804   0.874   4.902   1.874  0.8479 -0.5695  0.7540
 6744TIP3    H236805   0.959   4.981   1.970  0.5498 -1.0636  1.4389
 6745TIP3   OH236806   3.017   4.174   1.217 -0.4234  0.0025 -0.1606
 6745TIP3    H136807   3.106   4.146   1.194  0.8250  2.5093  1.1875
 6745TIP3    H236808   2.960   4.108   1.178  1.9830 -1.2758 -1.7499
 6746TIP3   OH236809   4.877   3.921   7.857 -1.0087  0.2542  0.1447
 6746TIP3    H136810   4.873   3.892   7.766 -0.7427  3.0512 -0.8563
 6746TIP3    H236811   4.788   3.951   7.876 -0.5004  2.0861 -0.1433
 6747TIP3   OH236812   6.030   6.157   1.014  0.3380 -0.2952 -0.6326
 6747TIP3    H136813   6.071   6.133   1.097 -0.6617  1.5895  0.4616
 6747TIP3    H236814   5.943   6.116   1.017  0.6480 -1.0204 -1.2033
 6748TIP3   OH236815   3.058   0.380   7.576 -0.1626  0.1648  0.5288
 6748TIP3    H136816   2.995   0.351   7.642  1.2007  1.0056  2.2823
 6748TIP3    H236817   3.052   0.475   7.577  0.4297  0.2149 -0.0022
 6749TIP3   OH236818   0.549   0.700   7.734 -0.0444 -0.5384  0.5010
 6749TIP3    H136819   0.463   0.685   7.772 -1.1460  0.7455 -1.3321
 6749TIP3    H236820   0.573   0.616   7.696 -2.1100 -0.1297 -1.9513
 6750TIP3   OH236821   5.219   6.295   2.018  0.0605 -0.7120 -0.8871
 6750TIP3    H136822   5.225   6.336   1.932  0.0551 -1.2531 -1.1512
 6750TIP3    H236823   5.223   6.201   2.000  2.8499 -0.8150 -0.0862
 6751TIP3   OH236824   3.692   5.545   7.349  0.0262 -0.4912 -0.1031
 6751TIP3    H136825   3.682   5.579   7.438 -1.4547 -0.2904 -0.3237
 6751TIP3    H236826   3.785   5.554   7.330  0.3327 -0.3901  1.3644
 6752TIP3   OH236827   3.147   3.658   1.087  0.1981 -0.1831 -0.2137
 6752TIP3    H136828   3.099   3.702   1.158  0.9877  0.9801 -0.3701
 6752TIP3    H236829   3.079   3.611   1.038 -0.7246  1.0407 -0.1652
 6753TIP3   OH236830   2.328   2.811   0.489  0.3511  0.5145  0.2901
 6753TIP3    H136831   2.293   2.759   0.561  1.1330 -0.6476 -0.1588
 6753TIP3    H236832   2.270   2.792   0.415 -0.2753  1.4832  0.5008
 6754TIP3   OH236833   5.368   2.537   6.478 -0.1117 -0.7017 -0.1338
 6754TIP3    H136834   5.447   2.494   6.512 -0.0249  1.0691  2.1433
 6754TIP3    H236835   5.299   2.471   6.490  0.4190 -1.0632  1.1324
 6755TIP3   OH236836   2.677   3.133   2.112  0.0257 -0.4505  0.1101
 6755TIP3    H136837   2.594   3.101   2.149  0.1332  0.1730  0.9137
 6755TIP3    H236838   2.651   3.193   2.042 -0.2460  0.8034  1.2445
 6756TIP3   OH236839   1.750   0.607   1.419  0.1149  0.2074 -0.0375
 6756TIP3    H136840   1.818   0.540   1.409  1.6976  1.2341  2.8019
 6756TIP3    H236841   1.780   0.680   1.365  1.6961  0.8761  1.6450
 6757TIP3   OH236842   2.133   5.885   3.231  0.5991 -0.5532  0.3760
 6757TIP3    H136843   2.213   5.834   3.228  0.8337 -0.1516 -1.7945
 6757TIP3    H236844   2.118   5.901   3.324  2.1149 -2.0302  0.9155
 6758TIP3   OH236845   0.136   6.114   1.094  0.3426 -0.2557 -0.3685
 6758TIP3    H136846   0.226   6.129   1.064  0.9545 -1.0263  0.9720
 6758TIP3    H236847   0.143   6.112   1.190 -1.2009  0.1779 -0.2262
 6759TIP3   OH236848   2.039   0.165   0.007  0.5888  0.0859 -0.4284
 6759TIP3    H136849   1.974   0.168   0.078  1.0265 -0.5167  0.0036
 6759TIP3    H236850   1.986   0.167  -0.073  0.0948  0.9056 -0.0969
 6760TIP3   OH236851   2.547   3.068   7.968  0.2606 -0.4097 -0.1762
 6760TIP3    H136852   2.483   3.079   8.038  0.4340 -1.0320  0.0909
 6760TIP3    H236853   2.496   3.068   7.887  0.0726  0.4354 -0.0613
 6761TIP3   OH236854   0.715   1.379   2.368 -0.3731 -0.5653  0.1236
 6761TIP3    H136855   0.747   1.344   2.451  0.0721 -1.0560 -0.2427
 6761TIP3    H236856   0.723   1.305   2.307  0.1047  0.0252 -0.5461
 6762TIP3   OH236857   1.774   1.751   7.364  0.0834 -0.0486  0.1176
 6762TIP3    H136858   1.714   1.769   7.437  0.1679 -1.8605  0.6887
 6762TIP3    H236859   1.826   1.831   7.356 -0.8532  0.7016  1.1286
 6763TIP3   OH236860   4.760   0.345   9.344  0.3089 -0.6318 -0.0885
 6763TIP3    H136861   4.836   0.334   9.401  0.9733  0.7616 -0.6252
 6763TIP3    H236862   4.685   0.351   9.403  0.7421 -1.0807  0.5123
 6764TIP3   OH236863   4.425   0.995   8.299 -0.2027 -0.9028  0.9396
 6764TIP3    H136864   4.482   0.986   8.375  2.0468 -0.9220 -0.6747
 6764TIP3    H236865   4.484   0.997   8.224 -2.3286 -0.7630 -0.8328
 6765TIP3   OH236866   2.312   4.884   0.627 -0.4070  0.6880 -0.1690
 6765TIP3    H136867   2.368   4.951   0.588  0.1192  0.0548 -0.5164
 6765TIP3    H236868   2.372   4.823   0.669 -0.9189  0.8373  0.8261
 6766TIP3   OH236869   4.489   2.039   9.204 -0.3387 -0.4291 -0.3109
 6766TIP3    H136870   4.410   2.021   9.257  0.8839  0.6548  2.0467
 6766TIP3    H236871   4.541   1.959   9.211 -0.7443 -0.7509 -0.9542
 6767TIP3   OH236872   2.571   4.135   6.686 -0.0930  0.3947 -0.3440
 6767TIP3    H136873   2.525   4.060   6.722  2.0817  0.2216  2.3966
 6767TIP3    H236874   2.524   4.211   6.720  1.6301  0.2267  2.7687
 6768TIP3   OH236875   4.322   5.570   8.215  0.1993 -0.1260 -0.6489
 6768TIP3    H136876   4.297   5.647   8.266  1.4695  0.3712 -0.7399
 6768TIP3    H236877   4.258   5.503   8.239  1.0432 -0.0883  1.9948
 6769TIP3   OH236878   1.467   1.091   6.551 -0.9002  0.0248  0.0497
 6769TIP3    H136879   1.512   1.012   6.523 -1.5070 -1.3265  2.5664
 6769TIP3    H236880   1.536   1.157   6.560 -0.1337 -0.6948 -0.4568
 6770TIP3   OH236881   0.571   4.736   7.696 -0.2173 -0.0727 -0.3684
 6770TIP3    H136882   0.479   4.763   7.685 -0.6896 -1.5288 -0.2120
 6770TIP3    H236883   0.577   4.711   7.788  0.9056  1.9025  0.1604
 6771TIP3   OH236884   6.049   3.114   0.606 -0.9071  0.6089 -0.3787
 6771TIP3    H136885   5.967   3.074   0.633 -0.6469 -2.3472 -3.2926
 6771TIP3    H236886   6.024   3.183   0.544 -1.3223 -1.1104 -2.2451
 6772TIP3   OH236887   5.228   3.500   6.769 -0.0022  0.0018  0.3603
 6772TIP3    H136888   5.227   3.590   6.738  2.0897 -0.0259  0.0616
 6772TIP3    H236889   5.173   3.452   6.707  1.4722  0.5274 -1.4366
 6773TIP3   OH236890   1.619   2.275   8.237  0.1841  0.0740 -0.0212
 6773TIP3    H136891   1.668   2.248   8.159  0.0164 -0.3777  0.0291
 6773TIP3    H236892   1.565   2.347   8.208 -1.9987 -1.8554 -1.0460
 6774TIP3   OH236893   6.382   6.271   1.853  0.0242  0.9793  0.3605
 6774TIP3    H136894   6.397   6.181   1.880 -0.1642  1.2691  1.4897
 6774TIP3    H236895   6.469   6.313   1.858 -0.0231  1.0507  0.5832
 6775TIP3   OH236896   4.801   2.949   7.549 -0.2695  0.1251  0.4249
 6775TIP3    H136897   4.708   2.947   7.572 -0.5866  0.7181 -0.7578
 6775TIP3    H236898   4.824   3.042   7.547  0.4773 -0.0300  1.1548
 6776TIP3   OH236899   2.722   1.944   6.736 -0.1576 -0.4157  0.5345
 6776TIP3    H136900   2.693   2.031   6.708  1.1556  0.9768  3.1033
 6776TIP3    H236901   2.705   1.888   6.661 -0.3816  2.1909 -1.5154
 6777TIP3   OH236902   3.697   3.408   7.502  0.0762  0.1766 -0.0269
 6777TIP3    H136903   3.658   3.339   7.556  0.1919  0.8096  0.8853
 6777TIP3    H236904   3.759   3.362   7.445  0.6458 -0.4051  1.0266
 6778TIP3   OH236905   4.846   5.394   7.468 -1.0666  0.1996 -0.2923
 6778TIP3    H136906   4.834   5.354   7.554  0.5387 -0.7415 -0.4642
 6778TIP3    H236907   4.821   5.326   7.406  0.5955 -0.1891 -0.5770
 6779TIP3   OH236908   4.112   2.716   8.116 -0.3500  0.2247 -0.1582
 6779TIP3    H136909   4.051   2.786   8.092  1.5702  1.4257 -1.7571
 6779TIP3    H236910   4.131   2.731   8.208 -2.1728 -0.0046  0.3020
 6780TIP3   OH236911   5.305   2.100   0.733  0.0166  0.4199  0.2624
 6780TIP3    H136912   5.239   2.057   0.787 -1.8146  0.0854 -2.1004
 6780TIP3    H236913   5.342   2.031   0.679 -1.3218  1.3033 -1.9401
 6781TIP3   OH236914   5.173   4.477   7.046  0.0246 -0.1395 -0.2568
 6781TIP3    H136915   5.089   4.441   7.073  0.8014 -1.9090 -0.0006
 6781TIP3    H236916   5.162   4.500   6.954 -0.7908 -0.1802 -0.1716
 6782TIP3   OH236917   0.926   2.749   0.439 -0.3901 -0.6361  0.2878
 6782TIP3    H136918   0.925   2.669   0.386  0.7782  0.2344 -1.1403
 6782TIP3    H236919   0.850   2.799   0.407 -0.2616 -0.5399  0.1315
 6783TIP3   OH236920   0.551   1.431   0.481 -0.5440  0.3740  0.3407
 6783TIP3    H136921   0.487   1.390   0.424  0.0234  2.6623 -2.1861
 6783TIP3    H236922   0.557   1.521   0.448  1.1860  1.2995  2.9197
 6784TIP3   OH236923   5.560   1.156   1.159  0.0546  0.3451  0.1331
 6784TIP3    H136924   5.576   1.128   1.250 -0.7165 -0.5049  0.0289
 6784TIP3    H236925   5.466   1.146   1.148  0.1686  0.2552 -0.8185
 6785TIP3   OH236926   2.058   3.429   1.540 -0.4649 -0.2321  0.1860
 6785TIP3    H136927   2.101   3.357   1.495  1.7539  0.0078  1.7829
 6785TIP3    H236928   2.027   3.487   1.470  0.5888 -1.1227 -1.0503
 6786TIP3   OH236929   3.309   3.509   8.422  0.1719 -0.5850  0.1822
 6786TIP3    H136930   3.227   3.515   8.472 -0.1237  0.1229 -0.3771
 6786TIP3    H236931   3.313   3.592   8.374 -0.2639 -1.8135 -2.0768
 6787TIP3   OH236932   3.412   3.342   0.795  0.6017  0.4564  0.0610
 6787TIP3    H136933   3.484   3.300   0.841 -0.8250  0.0638  2.0821
 6787TIP3    H236934   3.395   3.285   0.720  1.1984 -0.4549  0.6027
 6788TIP3   OH236935   4.665   4.678   6.763  0.2930 -0.5324  0.2389
 6788TIP3    H136936   4.674   4.770   6.741 -1.2220 -0.5335 -0.5837
 6788TIP3    H236937   4.751   4.640   6.745  0.8855  0.6759  0.4378
 6789TIP3   OH236938   0.507   1.418   8.999 -0.1016 -0.1281  0.6745
 6789TIP3    H136939   0.445   1.481   8.962  1.6110  0.1288 -1.9984
 6789TIP3    H236940   0.452   1.344   9.024 -1.5533 -0.1583 -2.1264
 6790TIP3   OH236941   6.186   0.016   1.677  0.0404  0.2348 -0.9784
 6790TIP3    H136942   6.281   0.020   1.693  0.3361  0.1258 -2.5954
 6790TIP3    H236943   6.149   0.075   1.743  1.2339  0.3755 -0.3948
 6791TIP3   OH236944   6.433   6.053   6.850 -0.0870  0.1520  0.1760
 6791TIP3    H136945   6.413   6.126   6.791 -3.3645 -0.0652  0.7986
 6791TIP3    H236946   6.434   5.976   6.793  0.5836  0.3490 -0.0896
 6792TIP3   OH236947   4.840   4.758   9.173  0.8543  0.4499  0.3911
 6792TIP3    H136948   4.801   4.792   9.092 -2.2175 -2.8306  0.2410
 6792TIP3    H236949   4.810   4.818   9.241 -0.6726  0.5906 -0.3572
 6793TIP3   OH236950   5.995   5.310   1.941 -0.3370  0.1122 -0.2890
 6793TIP3    H136951   5.934   5.291   2.012 -0.2930 -1.6131 -0.6668
 6793TIP3    H236952   5.940   5.312   1.863 -0.2206  0.8172 -0.3563
 6794TIP3   OH236953   5.005   3.313   6.777  0.1649  0.4417 -0.0823
 6794TIP3    H136954   5.036   3.312   6.687 -0.5613  5.4171 -0.6924
 6794TIP3    H236955   4.910   3.313   6.770 -0.0968 -3.5238  1.1397
 6795TIP3   OH236956   3.024   4.346   8.169 -0.0745 -0.3618  0.3967
 6795TIP3    H136957   3.068   4.337   8.254  1.4853 -1.5162 -0.4746
 6795TIP3    H236958   3.063   4.278   8.115 -2.1330 -0.6633 -0.8251
 6796TIP3   OH236959   4.227   6.244   1.101 -0.4927 -0.1128  0.0473
 6796TIP3    H136960   4.142   6.241   1.057  0.0687 -1.2502 -1.0023
 6796TIP3    H236961   4.287   6.197   1.043  0.9719  1.0565  0.5311
 6797TIP3   OH236962   3.705   3.092   9.283  0.5737 -0.0513  0.4738
 6797TIP3    H136963   3.710   3.021   9.346  1.5811 -0.4583 -0.0351
 6797TIP3    H236964   3.796   3.105   9.254  0.1438  0.1011 -0.9001
 6798TIP3   OH236965   0.706   5.775   0.292 -0.0234  0.1346 -0.1456
 6798TIP3    H136966   0.686   5.700   0.349 -1.2243  0.8169  0.3661
 6798TIP3    H236967   0.801   5.776   0.287  0.1371  0.1717  2.0322
 6799TIP3   OH236968   0.520   4.634   0.203 -0.0885 -0.0827 -0.5999
 6799TIP3    H136969   0.454   4.694   0.236 -0.6258 -0.7208 -0.4832
 6799TIP3    H236970   0.588   4.634   0.270  0.3393  1.0614 -1.0213
 6800TIP3   OH236971   0.785   3.219   1.766  0.5746  0.0134  0.1062
 6800TIP3    H136972   0.740   3.282   1.710 -1.9697 -0.5633  1.3405
 6800TIP3    H236973   0.873   3.213   1.730  0.0431  2.1161 -1.7618
 6801TIP3   OH236974   1.042   1.616   1.357  0.5430  0.0148  0.6066
 6801TIP3    H136975   1.055   1.561   1.279  2.1386  0.5635  0.4403
 6801TIP3    H236976   1.029   1.553   1.428 -2.7069 -0.4979 -0.2954
 6802TIP3   OH236977   3.025   0.180   0.037  0.7232 -0.2633  0.2406
 6802TIP3    H136978   3.066   0.249  -0.016  0.0617  0.0733  0.1407
 6802TIP3    H236979   3.095   0.119   0.057  1.8351  1.5412  2.1429
 6803TIP3   OH236980   5.138   2.597   2.191  0.2855 -0.5557 -0.3053
 6803TIP3    H136981   5.086   2.516   2.188  1.3429 -1.3686  1.6326
 6803TIP3    H236982   5.182   2.595   2.276  2.0131  1.0302 -1.0748
 6804TIP3   OH236983   1.701   3.169   7.732  0.3070 -0.1990  0.1955
 6804TIP3    H136984   1.739   3.081   7.732 -0.5130 -0.5576  0.4923
 6804TIP3    H236985   1.697   3.193   7.825 -2.2517 -1.0883  0.3856
 6805TIP3   OH236986   0.843   1.329   8.090 -0.2422  0.3712  0.5450
 6805TIP3    H136987   0.935   1.351   8.108 -0.3427  0.4443  0.9991
 6805TIP3    H236988   0.844   1.236   8.070 -0.0959  0.3186  0.7855
 6806TIP3   OH236989   1.685   5.419   7.978  0.4075  0.1598  0.3196
 6806TIP3    H136990   1.600   5.395   7.941  0.3607  0.1301  0.4487
 6806TIP3    H236991   1.666   5.490   8.039 -0.0352 -2.2020  3.0985
 6807TIP3   OH236992   1.209   5.583   1.513 -0.0893 -0.0926 -0.1160
 6807TIP3    H136993   1.158   5.541   1.444 -2.3024  1.9213  0.1664
 6807TIP3    H236994   1.146   5.598   1.584  1.3299  0.8531  0.9988
 6808TIP3   OH236995   4.520   4.553   1.519 -0.5862  0.3846  0.1809
 6808TIP3    H136996   4.555   4.627   1.469  0.7947  0.3533  1.0334
 6808TIP3    H236997   4.468   4.592   1.588 -0.0621  0.5598  0.4805
 6809TIP3   OH236998   4.377   3.105   3.201 -0.2773  0.2881 -0.5468
 6809TIP3    H136999   4.438   3.078   3.270 -1.3057 -0.3422  0.1507
 6809TIP3    H237000   4.432   3.122   3.125  0.5604 -3.0519 -0.8169
 6810TIP3   OH237001   3.807   4.763   0.432  0.4378  0.1294  0.4062
 6810TIP3    H137002   3.897   4.775   0.464  0.6774  1.1979 -0.6321
 6810TIP3    H237003   3.762   4.843   0.458  0.7938  1.3314 -2.3754
 6811TIP3   OH237004   5.407   4.857   7.718  0.8358  0.0704  0.4811
 6811TIP3    H137005   5.368   4.903   7.792 -0.0122  1.2306 -0.6512
 6811TIP3    H237006   5.413   4.923   7.649  0.1857 -1.3389 -0.9935
 6812TIP3   OH237007   3.309   4.092   8.285 -0.0572 -0.2592  0.3584
 6812TIP3    H137008   3.361   4.153   8.232 -1.4421  0.9299  0.2941
 6812TIP3    H237009   3.269   4.148   8.352 -0.9718 -1.1806  0.6047
 6813TIP3   OH237010   4.710   0.612   1.016 -0.4045 -0.4791 -0.5617
 6813TIP3    H137011   4.758   0.556   1.076 -1.4740 -0.2431  0.5587
 6813TIP3    H237012   4.696   0.693   1.064 -0.6825 -0.0157 -1.3919
 6814TIP3   OH237013   2.757   0.453   0.168  0.2735  0.3562 -0.2052
 6814TIP3    H137014   2.731   0.492   0.084 -1.8910  0.2209  0.3492
 6814TIP3    H237015   2.764   0.359   0.149  0.0707  0.3602 -0.3072
 6815TIP3   OH237016   5.956   1.520   7.892  0.4054 -0.0016 -0.2104
 6815TIP3    H137017   6.036   1.482   7.854  0.3971 -1.4976  1.1541
 6815TIP3    H237018   5.985   1.561   7.973  0.0878  1.2762 -0.7199
 6816TIP3   OH237019   4.575   5.290   0.596  0.3051  0.2229 -0.1526
 6816TIP3    H137020   4.640   5.234   0.638  0.2155 -0.8402 -1.3630
 6816TIP3    H237021   4.623   5.369   0.573  0.8530 -0.0317  0.0864
 6817TIP3   OH237022   4.367   2.204   8.086  0.4767 -0.6254  0.0130
 6817TIP3    H137023   4.281   2.208   8.043  0.5208  1.0528  0.0031
 6817TIP3    H237024   4.371   2.117   8.125 -0.5763 -1.3058 -1.3193
 6818TIP3   OH237025   3.246   2.976   8.327 -0.0698 -0.7610  0.0332
 6818TIP3    H137026   3.315   2.912   8.309 -0.2867 -1.5520  1.7975
 6818TIP3    H237027   3.289   3.044   8.379 -0.1691 -0.1487 -0.6554
 6819TIP3   OH237028   4.159   1.624   9.283 -0.2414  0.0748  0.3021
 6819TIP3    H137029   4.236   1.627   9.340 -0.7356 -0.6372  1.0296
 6819TIP3    H237030   4.182   1.679   9.208  1.6813 -1.5392 -0.3733
 6820TIP3   OH237031   3.754   3.236   0.186  0.1380  0.3132  0.4776
 6820TIP3    H137032   3.834   3.240   0.133  0.3901  1.5538  0.9050
 6820TIP3    H237033   3.684   3.258   0.125 -0.0328 -1.6829 -0.1173
 6821TIP3   OH237034   5.263   5.351   8.788  0.1866  0.3644  0.0119
 6821TIP3    H137035   5.255   5.441   8.818 -1.3886 -0.5007  2.4469
 6821TIP3    H237036   5.173   5.318   8.787  0.5224 -0.7129 -2.5756
 6822TIP3   OH237037   0.462   3.056   6.584  0.2900  0.0618  0.4177
 6822TIP3    H137038   0.466   2.970   6.626  0.3038 -0.4197 -0.5570
 6822TIP3    H237039   0.521   3.049   6.509  1.1695  1.2866  0.9484
 6823TIP3   OH237040   4.656   5.501   0.816  0.5862 -0.0214  0.0340
 6823TIP3    H137041   4.576   5.478   0.864  0.1399 -0.2715 -0.8125
 6823TIP3    H237042   4.693   5.574   0.865  0.6512 -0.8733  1.3029
 6824TIP3   OH237043   1.802   0.313   7.873 -0.0577  0.2811 -0.1823
 6824TIP3    H137044   1.803   0.332   7.779  0.6433 -1.0192 -0.4549
 6824TIP3    H237045   1.889   0.339   7.904  0.2521 -0.7024 -0.2033
 6825TIP3   OH237046   3.928   2.681   2.083  0.1847  0.0089 -0.0377
 6825TIP3    H137047   3.917   2.774   2.060 -2.4326 -0.4097 -0.8116
 6825TIP3    H237048   3.861   2.636   2.031  0.9481 -2.2498  0.8355
 6826TIP3   OH237049   2.639   4.077   2.350  0.1592 -0.1315  0.4077
 6826TIP3    H137050   2.618   4.162   2.389 -1.1334 -0.3189  0.1671
 6826TIP3    H237051   2.596   4.079   2.264 -0.1281 -1.1220  0.5135
 6827TIP3   OH237052   0.842   6.307   0.738 -0.2327  0.3637 -0.3116
 6827TIP3    H137053   0.787   6.301   0.660 -0.5633  1.7393 -0.2061
 6827TIP3    H237054   0.931   6.293   0.706 -0.4726 -0.1780 -0.7543
 6828TIP3   OH237055   5.033   4.912   1.338  0.4699 -0.0779 -0.2975
 6828TIP3    H137056   4.976   4.949   1.405  0.8367  2.1963 -1.1622
 6828TIP3    H237057   4.974   4.879   1.271  0.0342 -3.5916  1.5911
 6829TIP3   OH237058   0.589   4.993   2.445 -0.5353 -0.1477  0.4620
 6829TIP3    H137059   0.550   5.062   2.499 -1.1063  1.5329 -1.9649
 6829TIP3    H237060   0.678   5.024   2.429 -0.9928  0.4073 -1.1638
 6830TIP3   OH237061   4.715   2.096   0.441  0.4680  0.1835 -0.1886
 6830TIP3    H137062   4.755   2.010   0.437  0.2746  0.0708  0.1830
 6830TIP3    H237063   4.625   2.079   0.468  0.5140  0.5196  0.1906
 6831TIP3   OH237064   3.049   2.496   7.578  0.7527 -0.3366  0.4145
 6831TIP3    H137065   3.067   2.584   7.544 -0.0549 -0.0999  0.5664
 6831TIP3    H237066   2.957   2.481   7.555  1.2809 -1.7419 -0.9034
 6832TIP3   OH237067   4.510   6.205   1.320  0.3269 -0.0989  0.0506
 6832TIP3    H137068   4.438   6.232   1.377  0.4110 -0.7248  0.4545
 6832TIP3    H237069   4.495   6.254   1.239  0.3045  0.9249  0.6590
 6833TIP3   OH237070   1.430   0.673   0.882  0.0054 -0.2056  0.3702
 6833TIP3    H137071   1.445   0.586   0.920  1.0651 -0.6323 -0.9340
 6833TIP3    H237072   1.376   0.656   0.805 -0.8080  0.4573  0.7763
 6834TIP3   OH237073   4.250   1.569   1.419  0.5094  0.5952 -0.2875
 6834TIP3    H137074   4.206   1.489   1.391 -1.3902  2.1058 -1.8687
 6834TIP3    H237075   4.317   1.585   1.352 -0.5608  1.4433 -1.1822
 6835TIP3   OH237076   0.763  -0.017   0.025  0.3330 -0.0027  0.1585
 6835TIP3    H137077   0.699  -0.022  -0.045 -0.0292 -1.2364  0.5497
 6835TIP3    H237078   0.787   0.075   0.029 -1.2830  0.4599 -0.1098
 6836TIP3   OH237079   0.846   1.149   0.552 -0.1425 -0.2597  0.2415
 6836TIP3    H137080   0.878   1.234   0.522  0.3230  0.4758  2.5601
 6836TIP3    H237081   0.923   1.108   0.592 -0.4738 -1.6052 -0.4482
 6837TIP3   OH237082   5.250   5.898   0.483 -0.2758 -0.0635 -0.7178
 6837TIP3    H137083   5.158   5.892   0.458  0.0391 -1.5789 -1.6231
 6837TIP3    H237084   5.249   5.926   0.574 -1.5619  2.2331 -1.3645
 6838TIP3   OH237085   3.877   1.640   2.724 -0.7819  0.1628  0.2046
 6838TIP3    H137086   3.844   1.550   2.733 -0.3771 -0.0387 -0.2661
 6838TIP3    H237087   3.839   1.687   2.798 -1.3092 -0.3055  0.2389
 6839TIP3   OH237088   0.690   3.364   7.850 -0.0679 -0.1281  0.4485
 6839TIP3    H137089   0.774   3.405   7.872  0.6794 -1.4145  0.1273
 6839TIP3    H237090   0.706   3.321   7.766 -1.7805  1.6190 -0.8634
 6840TIP3   OH237091   2.768   2.917   7.725 -0.0139 -0.3305  0.1855
 6840TIP3    H137092   2.721   2.931   7.642  1.8945 -0.6427 -1.0225
 6840TIP3    H237093   2.766   2.822   7.737  0.1479 -0.3303  0.2134
 6841TIP3   OH237094   0.893   4.593   2.560  0.0179  0.1186 -0.1814
 6841TIP3    H137095   0.806   4.620   2.529  0.2371  0.6851 -0.3153
 6841TIP3    H237096   0.910   4.511   2.513 -0.5821 -0.1745  0.0959
 6842TIP3   OH237097   5.193   2.411   1.457  0.2045 -0.6945  0.1000
 6842TIP3    H137098   5.179   2.316   1.463 -0.1116 -0.6491  0.1574
 6842TIP3    H237099   5.145   2.437   1.379 -0.6977 -0.4199  0.7182
 6843TIP3   OH237100   0.179   5.146   6.870 -0.6193 -0.0625  0.2845
 6843TIP3    H137101   0.237   5.183   6.936  0.8610 -0.4086 -0.7863
 6843TIP3    H237102   0.204   5.188   6.788 -1.9401 -0.1615 -0.2052
 6844TIP3   OH237103   1.415   0.752   2.004 -0.1925 -0.4482 -0.3910
 6844TIP3    H137104   1.482   0.694   2.039  0.1539  1.5119  2.5226
 6844TIP3    H237105   1.333   0.718   2.042 -0.1864 -0.0059  0.0306
 6845TIP3   OH237106   3.527   5.360   0.131 -0.3181  0.8304 -0.5641
 6845TIP3    H137107   3.456   5.403   0.179 -1.8766 -2.0216 -0.1347
 6845TIP3    H237108   3.484   5.306   0.066  1.4818 -0.5488 -0.6912
 6846TIP3   OH237109   2.364   6.147   1.558  0.0338  0.0981  0.3211
 6846TIP3    H137110   2.404   6.229   1.584 -0.0979  0.4577 -0.5763
 6846TIP3    H237111   2.437   6.090   1.536  0.1953  1.6522 -4.1237
 6847TIP3   OH237112   1.826   2.443   9.308  0.4431  0.0110 -0.5682
 6847TIP3    H137113   1.731   2.441   9.300  0.1598  1.2959  1.6814
 6847TIP3    H237114   1.851   2.529   9.276  0.7409 -0.0001 -0.3685
 6848TIP3   OH237115   5.261   4.147   7.905 -0.1206  0.1542  0.6228
 6848TIP3    H137116   5.266   4.052   7.912 -1.2735 -0.0779 -1.1782
 6848TIP3    H237117   5.182   4.171   7.954  0.8676  0.3683  2.1816
 6849TIP3   OH237118   2.042   6.255   9.092 -0.2712  0.0835 -0.1606
 6849TIP3    H137119   2.099   6.317   9.048  0.4270  0.1797  0.8478
 6849TIP3    H237120   2.095   6.175   9.100  0.3715  0.6670  2.2123
 6850TIP3   OH237121   3.890   4.793   7.664  0.1551 -0.3894  0.3199
 6850TIP3    H137122   3.899   4.818   7.572 -1.2157  0.5561  0.3986
 6850TIP3    H237123   3.851   4.870   7.706 -1.7234 -1.6949  1.1449
 6851TIP3   OH237124   3.833   4.549   1.664 -0.5309  0.4557 -0.0393
 6851TIP3    H137125   3.828   4.572   1.572  0.3886 -0.5012 -0.3556
 6851TIP3    H237126   3.819   4.454   1.666 -0.5218  0.4596  0.8047
 6852TIP3   OH237127   4.565   6.053   0.254  0.3603  0.1186 -0.1992
 6852TIP3    H137128   4.565   6.101   0.171  2.1256 -1.7868 -1.4186
 6852TIP3    H237129   4.477   6.017   0.261  0.5885 -1.0420 -2.1885
 6853TIP3   OH237130   2.151   6.384   8.251 -0.0618  0.0283 -0.7159
 6853TIP3    H137131   2.090   6.329   8.203  0.5194 -1.1637 -0.1215
 6853TIP3    H237132   2.210   6.323   8.295  0.5140  1.1184  0.0866
 6854TIP3   OH237133   2.202   2.333   7.718 -0.6305  0.0841  0.5451
 6854TIP3    H137134   2.276   2.391   7.737 -0.2102 -0.6071  1.0192
 6854TIP3    H237135   2.224   2.250   7.759 -0.3829 -0.9965 -1.6435
 6855TIP3   OH237136   1.469   4.223   6.724  0.7590 -0.7090 -0.2256
 6855TIP3    H137137   1.455   4.315   6.704  3.2306 -0.3526 -0.6387
 6855TIP3    H237138   1.455   4.178   6.640  2.1243 -0.3466 -0.6741
 6856TIP3   OH237139   4.582   1.252   8.363 -0.0698  0.1438  0.1989
 6856TIP3    H137140   4.568   1.241   8.270  0.1202  1.1995  0.0382
 6856TIP3    H237141   4.550   1.340   8.383  2.4571  1.0971  0.5461
 6857TIP3   OH237142   6.318   0.498   1.681  0.5860 -0.1019 -0.1989
 6857TIP3    H137143   6.401   0.540   1.658  0.6910  0.3020  0.8530
 6857TIP3    H237144   6.309   0.512   1.775 -0.9436  0.3634 -0.3699
 6858TIP3   OH237145   5.655   1.409   1.045 -0.3586 -0.3546  0.4355
 6858TIP3    H137146   5.660   1.389   0.951 -0.1809  0.1711  0.3274
 6858TIP3    H237147   5.605   1.337   1.082 -0.1984 -0.7122 -0.0231
 6859TIP3   OH237148   1.265   1.912   8.310  0.3226  0.6386  0.3053
 6859TIP3    H137149   1.320   1.990   8.311 -0.9940  1.6774 -1.2959
 6859TIP3    H237150   1.176   1.945   8.326 -0.5091 -0.2141 -2.0592
 6860TIP3   OH237151   1.896   1.966   7.813  0.1112  0.4898  0.2756
 6860TIP3    H137152   1.836   1.919   7.755  0.6638  0.8072 -0.5722
 6860TIP3    H237153   1.842   1.993   7.887 -0.6066  0.0671 -0.0892
 6861TIP3   OH237154   5.309   0.729   0.368 -0.6893  0.0557  0.0302
 6861TIP3    H137155   5.404   0.725   0.379 -0.7917 -0.2206  0.8363
 6861TIP3    H237156   5.294   0.697   0.279 -0.0480 -0.1354 -0.0134
 6862TIP3   OH237157   1.755   0.720   0.843 -0.3155  1.2097 -0.1198
 6862TIP3    H137158   1.689   0.777   0.882 -2.3627 -0.9033 -0.2285
 6862TIP3    H237159   1.839   0.757   0.872 -1.5289  3.6462  0.5607
 6863TIP3   OH237160   3.356   2.781   7.244 -0.0392  0.0281  0.0202
 6863TIP3    H137161   3.336   2.868   7.279 -2.0770  0.4208 -1.9042
 6863TIP3    H237162   3.271   2.746   7.216  0.6364 -2.7779  1.0485
 6864TIP3   OH237163   3.521   1.408   2.616  0.2334  0.4581  0.1833
 6864TIP3    H137164   3.542   1.314   2.617  0.9514  0.6120  0.5238
 6864TIP3    H237165   3.544   1.438   2.704 -1.4287  0.6624  0.5817
 6865TIP3   OH237166   3.199   6.181   0.062  0.5471 -0.1049 -0.0469
 6865TIP3    H137167   3.149   6.149   0.138 -0.4053 -1.0679 -1.0509
 6865TIP3    H237168   3.278   6.127   0.060  1.1027  0.6393  0.8615
 6866TIP3   OH237169   2.661   2.351   7.976  0.3659 -0.1551 -0.3687
 6866TIP3    H137170   2.599   2.391   7.916 -0.1006 -1.1698 -0.5758
 6866TIP3    H237171   2.694   2.424   8.029 -2.2654  0.2071  0.9085
 6867TIP3   OH237172   2.701   0.795   0.028  0.5290  0.3375  0.5908
 6867TIP3    H137173   2.667   0.852   0.097 -0.3365  1.5280 -0.7599
 6867TIP3    H237174   2.793   0.821   0.017  0.6067  0.2924  1.1282
 6868TIP3   OH237175   0.964   0.612   7.918 -0.3647  0.1136 -0.2622
 6868TIP3    H137176   1.033   0.575   7.974  0.6116  1.0690 -0.7912
 6868TIP3    H237177   0.982   0.578   7.831 -1.2621 -0.5376 -0.2096
 6869TIP3   OH237178   6.251   2.504   1.676  0.4460 -0.8531 -0.1564
 6869TIP3    H137179   6.231   2.573   1.612  0.5626 -0.7416 -0.0723
 6869TIP3    H237180   6.228   2.542   1.760  0.6906 -0.8495 -0.0919
 6870TIP3   OH237181   0.447   2.719   8.682  0.0512  0.4089 -0.5051
 6870TIP3    H137182   0.368   2.668   8.699  0.7613 -0.4005  0.5115
 6870TIP3    H237183   0.471   2.696   8.592 -1.3110  1.3135 -1.1292
 6871TIP3   OH237184   4.368   0.430   1.330 -0.1786  0.0650 -0.2601
 6871TIP3    H137185   4.314   0.460   1.403  0.3918 -1.1487  0.6877
 6871TIP3    H237186   4.350   0.493   1.260 -0.2202  1.6459  1.1244
 6872TIP3   OH237187   1.153   3.990   1.134  0.3035  0.0662 -0.7240
 6872TIP3    H137188   1.229   3.969   1.079  1.9780  1.4927  0.8768
 6872TIP3    H237189   1.077   3.966   1.081  1.8347 -3.4158 -1.6215
 6873TIP3   OH237190   1.585   0.048   1.316  0.6212  0.7476  0.0295
 6873TIP3    H137191   1.653   0.079   1.257  2.0478 -0.8818  0.7218
 6873TIP3    H237192   1.598  -0.047   1.320 -0.3293  0.6396  1.8359
 6874TIP3   OH237193   0.366   4.123   8.271 -0.4815 -0.4140  0.1680
 6874TIP3    H137194   0.319   4.071   8.206 -0.9605  1.0789 -0.7214
 6874TIP3    H237195   0.404   4.195   8.222 -1.0551  0.8903  1.5507
 6875TIP3   OH237196   0.928   5.783   1.404  0.0242 -0.7684 -0.1299
 6875TIP3    H137197   0.922   5.691   1.378  1.3837 -1.2973  1.2679
 6875TIP3    H237198   0.894   5.831   1.329  2.1961 -2.2630 -2.2076
 6876TIP3   OH237199   3.057   4.630   2.619  0.0859 -0.4005  0.3608
 6876TIP3    H137200   3.070   4.643   2.526 -1.8504 -1.0017 -0.0323
 6876TIP3    H237201   3.028   4.715   2.653 -0.4997 -0.5131  0.1512
 6877TIP3   OH237202   1.816   4.173   7.060 -0.0458 -0.1821  0.0489
 6877TIP3    H137203   1.773   4.232   7.123  0.6356 -0.5831  0.9217
 6877TIP3    H237204   1.744   4.135   7.009 -0.5411  0.8577 -0.0430
 6878TIP3   OH237205   0.186   3.052   7.625 -0.4200  0.5482  0.3925
 6878TIP3    H137206   0.165   2.959   7.640 -0.5678  0.1242 -2.0466
 6878TIP3    H237207   0.254   3.072   7.689 -1.3471 -0.8432  1.8842
 6879TIP3   OH237208   5.111   0.571   7.449 -0.3792  0.1194 -0.0456
 6879TIP3    H137209   5.194   0.564   7.496 -0.0137  1.9474 -0.3248
 6879TIP3    H237210   5.044   0.545   7.512  0.2932  0.2074  0.7128
 6880TIP3   OH237211   2.217   2.338   7.417 -0.0323 -0.3354 -0.2603
 6880TIP3    H137212   2.233   2.245   7.406  1.9949 -0.0875  0.2151
 6880TIP3    H237213   2.176   2.345   7.503  2.3155 -0.6307  0.9779
 6881TIP3   OH237214   2.463   5.365   2.794 -0.3204 -0.0146 -0.3715
 6881TIP3    H137215   2.377   5.368   2.751 -1.9448  0.3186  2.5877
 6881TIP3    H237216   2.475   5.453   2.830  0.2590 -0.6195  0.9834
 6882TIP3   OH237217   4.207   2.933   0.451  0.1803  0.4612  0.2440
 6882TIP3    H137218   4.127   2.976   0.481 -0.7649 -0.9291 -0.1484
 6882TIP3    H237219   4.271   2.948   0.521 -0.3921  1.6694  0.5197
 6883TIP3   OH237220   1.014   2.059   0.809  0.3778  0.1583  0.2170
 6883TIP3    H137221   0.979   2.143   0.777  1.0080 -0.5513 -2.6798
 6883TIP3    H237222   1.108   2.066   0.795  0.7394 -0.2211  2.1710
 6884TIP3   OH237223   1.167   6.374   9.267  0.5526 -0.3297 -0.2158
 6884TIP3    H137224   1.097   6.359   9.331 -0.1141  0.9826 -0.5963
 6884TIP3    H237225   1.173   6.470   9.261  2.9014 -0.3782  0.3482
 6885TIP3   OH237226   3.223   0.636   1.553  0.0566 -0.6649  0.0407
 6885TIP3    H137227   3.153   0.628   1.489  1.0174 -0.0095 -1.1456
 6885TIP3    H237228   3.292   0.578   1.520  0.1700 -1.1169  1.0481
 6886TIP3   OH237229   5.934   0.907   0.693  0.0927  0.3629  0.3693
 6886TIP3    H137230   6.011   0.958   0.720 -0.2537  0.3596  1.3811
 6886TIP3    H237231   5.872   0.918   0.764 -1.2907  1.2717 -0.9244
 6887TIP3   OH237232   4.886   1.145   8.996 -0.3343  0.0051  0.0112
 6887TIP3    H137233   4.936   1.226   8.991  1.1578 -0.6916  2.0931
 6887TIP3    H237234   4.795   1.171   8.981  0.1001  2.0835  0.6840
 6888TIP3   OH237235   2.702   2.353   0.759  0.3608  0.4761 -0.0389
 6888TIP3    H137236   2.667   2.300   0.688 -0.9222  0.2995  0.7050
 6888TIP3    H237237   2.716   2.439   0.720 -0.0480  0.3032 -0.5770
 6889TIP3   OH237238   0.418   4.889   8.749 -0.0391 -0.3352 -0.0044
 6889TIP3    H137239   0.352   4.946   8.790 -0.2565 -1.2481  0.9577
 6889TIP3    H237240   0.373   4.805   8.738  0.9428 -0.9598  0.6314
 6890TIP3   OH237241   1.221   3.704   8.983  0.2850  0.3717  0.5754
 6890TIP3    H137242   1.126   3.714   8.990 -0.1362 -1.0991 -1.7914
 6890TIP3    H237243   1.242   3.739   8.896  2.0300  1.2040  1.2958
 6891TIP3   OH237244   2.505   0.863   8.794  0.5001 -0.3100  0.7022
 6891TIP3    H137245   2.441   0.803   8.832 -1.1313  0.3899 -0.7938
 6891TIP3    H237246   2.585   0.811   8.785 -0.1366 -1.5075  1.7062
 6892TIP3   OH237247   2.987   1.214   8.000 -0.5684  0.2492 -0.1792
 6892TIP3    H137248   3.019   1.237   7.913  1.0964 -1.1279  0.0120
 6892TIP3    H237249   3.065   1.212   8.055 -1.3930 -0.3028  1.0254
 6893TIP3   OH237250   2.690   4.872   7.202 -0.3605 -0.5347 -0.4369
 6893TIP3    H137251   2.679   4.795   7.258 -0.3376 -0.3356 -0.1541
 6893TIP3    H237252   2.784   4.874   7.183  0.0007  0.5234  1.1824
 6894TIP3   OH237253   0.723   0.895   1.439  0.5577  0.4749  0.0632
 6894TIP3    H137254   0.725   0.801   1.423  1.3126  0.3986  0.5651
 6894TIP3    H237255   0.691   0.904   1.528 -0.2905  0.7402 -0.2584
 6895TIP3   OH237256   5.984   3.006   8.753  0.0442 -0.2998 -0.4772
 6895TIP3    H137257   5.889   2.998   8.743  0.1030 -0.7650 -0.7054
 6895TIP3    H237258   6.014   3.046   8.671  0.2374 -1.7701 -1.1538
 6896TIP3   OH237259   5.678   0.496   9.298 -0.5405 -0.2584  0.3432
 6896TIP3    H137260   5.630   0.483   9.216  0.8371  0.0757 -0.5591
 6896TIP3    H237261   5.624   0.557   9.348 -0.3756  1.3353 -1.2963
 6897TIP3   OH237262   0.712   5.343   2.417  0.0379 -0.1473 -0.5184
 6897TIP3    H137263   0.627   5.299   2.427 -0.5640  0.7967 -1.2346
 6897TIP3    H237264   0.755   5.296   2.345  0.6892 -1.4413  0.6809
 6898TIP3   OH237265   2.782   1.204   1.513 -0.1922  0.3495 -0.1333
 6898TIP3    H137266   2.818   1.116   1.522  0.7490  0.9510  2.8113
 6898TIP3    H237267   2.696   1.199   1.553  0.6392  1.1449  1.8709
 6899TIP3   OH237268   5.349   1.081   0.265 -0.4483  0.2941 -0.1050
 6899TIP3    H137269   5.377   1.023   0.194 -1.4891  1.1057 -1.2249
 6899TIP3    H237270   5.253   1.074   0.265 -0.5310  1.2430  0.4114
 6900TIP3   OH237271   5.284   5.597   2.102 -0.3385  0.0348 -0.5139
 6900TIP3    H137272   5.191   5.591   2.079 -0.3784  0.4110 -0.4652
 6900TIP3    H237273   5.328   5.537   2.042 -0.7521 -1.1098  0.3021
 6901TIP3   OH237274   5.586   3.989   2.810  0.0897 -0.1607 -0.0957
 6901TIP3    H137275   5.511   3.959   2.862  0.2590 -2.0082 -0.8312
 6901TIP3    H237276   5.644   4.031   2.874 -1.3039  0.8243  0.5774
 6902TIP3   OH237277   1.364   0.282   3.709 -0.1384  0.5483 -0.1343
 6902TIP3    H137278   1.322   0.348   3.764 -0.7682 -1.1808  1.5833
 6902TIP3    H237279   1.405   0.332   3.639 -0.2394  2.7845  1.2899
 6903TIP3   OH237280   5.099   2.752   7.084 -0.1139 -0.1809  0.6032
 6903TIP3    H137281   5.160   2.728   7.014  0.7727  0.4331  1.1528
 6903TIP3    H237282   5.018   2.706   7.061  0.3781 -0.5730 -0.4328
 6904TIP3   OH237283   0.663   6.176   6.890  0.1886 -0.0666  0.2708
 6904TIP3    H137284   0.666   6.247   6.954  0.5610 -1.5181  1.9442
 6904TIP3    H237285   0.747   6.180   6.845  0.5848 -0.0221  1.0043
 6905TIP3   OH237286   3.400   5.134   2.331 -0.0480  0.2857 -0.1599
 6905TIP3    H137287   3.377   5.217   2.372  0.4133  0.6977 -0.7142
 6905TIP3    H237288   3.361   5.139   2.243 -0.5814 -0.3601  0.0311
 6906TIP3   OH237289   2.374   0.209   9.381  0.2578 -0.0632  0.2538
 6906TIP3    H137290   2.447   0.219   9.443  0.4720 -0.7293  0.1181
 6906TIP3    H237291   2.347   0.118   9.391 -0.1649  0.0183 -0.1341
 6907TIP3   OH237292   1.993   1.999   1.071  0.5839 -0.2077 -0.0323
 6907TIP3    H137293   2.060   1.962   1.013  1.5515  1.4040 -0.0030
 6907TIP3    H237294   2.036   2.003   1.157 -0.4060 -1.3900  0.5496
 6908TIP3   OH237295   4.122   0.256   7.911 -0.1992 -0.2222  0.5374
 6908TIP3    H137296   4.075   0.258   7.828  0.9474 -0.7130 -0.1538
 6908TIP3    H237297   4.069   0.309   7.970 -1.0352  0.1497 -0.5108
 6909TIP3   OH237298   4.894   6.415   2.783 -0.1670  0.4374 -0.1294
 6909TIP3    H137299   4.856   6.363   2.854 -1.0175  1.2255  0.0198
 6909TIP3    H237300   4.834   6.403   2.709  0.5067 -0.0746 -0.6081
 6910TIP3   OH237301   2.456   4.644   1.886  1.0581  0.5940  0.2425
 6910TIP3    H137302   2.535   4.685   1.923  1.8943 -0.1464 -0.6559
 6910TIP3    H237303   2.482   4.618   1.797 -0.4855  1.1401 -0.4026
 6911TIP3   OH237304   6.317   2.764   0.122 -0.1192  0.3673  0.4188
 6911TIP3    H137305   6.357   2.817   0.191 -1.1388  1.0991  0.4798
 6911TIP3    H237306   6.270   2.828   0.068 -0.4910 -0.3621 -0.1344
 6912TIP3   OH237307   4.692   2.448   8.283 -0.0606  0.4442 -0.2095
 6912TIP3    H137308   4.651   2.450   8.370  3.1026  3.0028  1.4451
 6912TIP3    H237309   4.710   2.540   8.263  0.3420 -0.1740 -3.1081
 6913TIP3   OH237310   3.991   4.774   8.562 -0.5807 -0.6615  0.2378
 6913TIP3    H137311   3.981   4.786   8.467 -0.1865  1.0073  0.3902
 6913TIP3    H237312   3.938   4.696   8.581 -1.6940 -0.2898 -1.1461
 6914TIP3   OH237313   5.770   6.220   9.129  0.4129  0.7332  0.4841
 6914TIP3    H137314   5.764   6.126   9.143  0.6814  0.6696  0.1671
 6914TIP3    H237315   5.679   6.250   9.131 -0.0077  0.0238 -2.3977
 6915TIP3   OH237316   3.211   0.900   1.645 -0.3173 -0.7000  0.0553
 6915TIP3    H137317   3.163   0.885   1.727 -0.1304 -0.2786  0.2476
 6915TIP3    H237318   3.213   0.815   1.602 -0.2300 -0.9711  0.5926
 6916TIP3   OH237319   4.491   5.112   0.383  0.0616  0.0090 -0.0385
 6916TIP3    H137320   4.492   5.171   0.459 -0.6955 -1.2199  0.9564
 6916TIP3    H237321   4.539   5.160   0.316  1.3296  0.8677  1.4140
 6917TIP3   OH237322   5.755   1.662   2.793 -0.1576  0.1383 -0.7738
 6917TIP3    H137323   5.832   1.608   2.778 -0.2218  0.1186 -1.0379
 6917TIP3    H237324   5.789   1.750   2.806 -0.0051 -0.0493  0.2335
 6918TIP3   OH237325   0.938   4.014   6.282 -0.7489 -0.2433 -0.4330
 6918TIP3    H137326   0.992   3.954   6.229  0.5951  0.6866 -0.1775
 6918TIP3    H237327   0.897   3.957   6.347 -0.2990 -1.0318 -0.8169
 6919TIP3   OH237328   0.100   3.126   2.023  0.1081  0.1268 -0.2206
 6919TIP3    H137329   0.056   3.209   2.041  2.5415  1.3695  0.3884
 6919TIP3    H237330   0.133   3.135   1.934  2.0029  0.6537  0.4882
 6920TIP3   OH237331   2.022   3.029   6.890  0.2748  0.1011  0.3328
 6920TIP3    H137332   2.032   3.124   6.901 -1.2577  0.5699 -1.8136
 6920TIP3    H237333   2.022   2.995   6.980  1.5847  2.0051  1.1291
 6921TIP3   OH237334   1.716   6.055   0.295  0.4007  0.2208  0.3688
 6921TIP3    H137335   1.756   5.968   0.300  0.4247  0.2855  1.6206
 6921TIP3    H237336   1.707   6.072   0.201  1.9605 -0.4058  0.0745
 6922TIP3   OH237337   4.815   1.789   0.559 -0.0711  0.1649  0.1038
 6922TIP3    H137338   4.839   1.703   0.593  0.2242 -0.2674 -1.1320
 6922TIP3    H237339   4.893   1.842   0.571 -0.5368  0.5223  1.6597
 6923TIP3   OH237340   5.613   3.672   1.025  0.5743 -0.1269 -0.2378
 6923TIP3    H137341   5.599   3.714   1.110  0.5713  1.3718 -0.9427
 6923TIP3    H237342   5.531   3.685   0.977  1.1137  0.4700 -1.0359
 6924TIP3   OH237343   0.111   3.062   1.418  0.0458 -0.4438 -0.5765
 6924TIP3    H137344   0.128   3.155   1.406 -0.5925 -0.2536 -0.0660
 6924TIP3    H237345   0.186   3.018   1.379  0.4099  0.2886 -0.7045
 6925TIP3   OH237346   1.695   0.036   2.078  0.6115 -0.5138  0.0827
 6925TIP3    H137347   1.742   0.014   2.158  1.3025 -1.3840 -0.5391
 6925TIP3    H237348   1.607   0.060   2.108  1.2424  0.5079  1.2040
 6926TIP3   OH237349   6.326   5.506   0.711 -0.7173  0.3395  0.7271
 6926TIP3    H137350   6.281   5.590   0.722  0.2906  0.9688  0.2045
 6926TIP3    H237351   6.399   5.510   0.773 -0.3799  0.0481  0.3515
 6927TIP3   OH237352   4.764   1.193   0.803 -0.2753 -0.3162 -0.4767
 6927TIP3    H137353   4.827   1.125   0.827 -2.0484 -1.7603  0.2997
 6927TIP3    H237354   4.789   1.217   0.713  0.9597 -1.3127 -0.4429
 6928TIP3   OH237355   1.377   6.387   1.099 -0.0104 -0.2351 -0.3362
 6928TIP3    H137356   1.444   6.320   1.084 -0.4944 -0.6130 -0.8837
 6928TIP3    H237357   1.298   6.351   1.059 -0.3543  0.5377 -0.3776
 6929TIP3   OH237358   0.682   3.695   0.211  0.5161 -0.2985 -0.0233
 6929TIP3    H137359   0.615   3.748   0.254  0.9373  0.5290 -0.3554
 6929TIP3    H237360   0.676   3.609   0.253  1.0098  0.5152  1.8321
 6930TIP3   OH237361   3.338   4.722   0.581  0.1066 -0.0613  0.0226
 6930TIP3    H137362   3.323   4.775   0.659 -1.7345 -0.0916 -0.2664
 6930TIP3    H237363   3.388   4.779   0.522 -0.8105  0.9366  0.1846
 6931TIP3   OH237364   1.927   2.408   1.156 -0.6760 -0.5617 -0.0441
 6931TIP3    H137365   1.874   2.463   1.213 -0.2857  0.0234 -0.2381
 6931TIP3    H237366   1.896   2.319   1.173 -0.8715 -0.3528  0.7496
 6932TIP3   OH237367   5.979   3.391   2.097  0.1155  0.7885  0.3616
 6932TIP3    H137368   6.037   3.319   2.123 -0.6444  0.1422  0.3046
 6932TIP3    H237369   5.913   3.395   2.166  0.5363  1.8935  0.7180
 6933TIP3   OH237370   4.854   5.389   9.050  0.0655  0.0085  0.1071
 6933TIP3    H137371   4.906   5.452   9.101 -0.2016  1.2302 -1.0760
 6933TIP3    H237372   4.917   5.351   8.989  0.3046 -1.1779  1.0626
 6934TIP3   OH237373   1.580   4.238   9.168 -0.0583  0.5635 -0.2297
 6934TIP3    H137374   1.487   4.227   9.187  0.0855 -0.0139  0.1444
 6934TIP3    H237375   1.611   4.299   9.235  0.3954 -1.2856  1.3223
 6935TIP3   OH237376   3.931   3.890   0.103 -0.5245 -0.0039  0.5353
 6935TIP3    H137377   3.884   3.923   0.026  1.5061 -0.9561 -1.2204
 6935TIP3    H237378   3.943   3.967   0.159 -1.4337  0.8643 -0.4286
 6936TIP3   OH237379   5.574   4.330   1.854  0.5557  0.3036 -0.4157
 6936TIP3    H137380   5.579   4.415   1.811  2.6760 -0.3782 -1.7233
 6936TIP3    H237381   5.482   4.317   1.874 -0.2274  1.6317 -2.8692
 6937TIP3   OH237382   2.811   0.017   8.197  0.2579  0.1705  0.3875
 6937TIP3    H137383   2.782   0.068   8.122 -0.1386 -2.3396 -1.2571
 6937TIP3    H237384   2.905   0.032   8.201  1.0522 -2.7188 -3.2199
 6938TIP3   OH237385   5.532   5.335   7.280 -0.2500  0.1883 -0.3595
 6938TIP3    H137386   5.595   5.395   7.239 -0.6379 -0.5538 -2.0878
 6938TIP3    H237387   5.548   5.251   7.239  0.8270 -1.1960  2.5772
 6939TIP3   OH237388   2.420   0.424   8.403 -0.5210  0.4458  0.0535
 6939TIP3    H137389   2.439   0.504   8.453 -0.0443  0.9536 -0.9141
 6939TIP3    H237390   2.336   0.393   8.438 -1.4998  2.2256 -0.5977
 6940TIP3   OH237391   1.298   0.158   1.545 -0.3439 -0.0712  0.3051
 6940TIP3    H137392   1.377   0.213   1.542 -1.1274  1.1946  1.3975
 6940TIP3    H237393   1.267   0.157   1.455  1.6086 -1.7310 -0.4408
 6941TIP3   OH237394   4.058   4.366   0.350  0.4991  0.4590 -0.1548
 6941TIP3    H137395   4.100   4.445   0.316 -1.4003  1.4822 -0.2607
 6941TIP3    H237396   3.968   4.370   0.317  0.0230 -1.1393  0.8148
 6942TIP3   OH237397   1.891   0.400   1.143  0.2137  0.1690 -0.3660
 6942TIP3    H137398   1.800   0.426   1.134  0.0159  1.1048  3.0305
 6942TIP3    H237399   1.901   0.376   1.235  3.4241  0.2149 -0.5680
 6943TIP3   OH237400   1.921   5.396   0.964  0.6469  0.5597  0.4209
 6943TIP3    H137401   1.914   5.427   1.054  0.3913  0.6696  0.3647
 6943TIP3    H237402   1.886   5.467   0.911 -1.7159 -0.5150  0.4009
 6944TIP3   OH237403   3.379   1.883   3.160  0.3947  0.6183  0.5347
 6944TIP3    H137404   3.288   1.905   3.138 -1.1541 -2.3191  3.1446
 6944TIP3    H237405   3.403   1.813   3.100 -0.0781 -0.3523  1.4367
 6945TIP3   OH237406   3.334   0.015   6.929 -0.1099 -0.3194 -0.3207
 6945TIP3    H137407   3.423  -0.020   6.933  0.1585  0.2269 -1.1271
 6945TIP3    H237408   3.335   0.072   6.852 -1.3045 -0.6959 -0.6325
 6946TIP3   OH237409   0.137   4.105   1.988  1.0278 -0.2940  0.2774
 6946TIP3    H137410   0.148   4.085   1.895  1.2390  1.1540 -0.0365
 6946TIP3    H237411   0.209   4.058   2.031  0.6724 -1.3209 -0.2255
 6947TIP3   OH237412   5.346   5.261   9.284  0.1223 -0.7560  0.0089
 6947TIP3    H137413   5.398   5.245   9.205  0.5567  3.9406 -0.9892
 6947TIP3    H237414   5.258   5.280   9.251  0.0666  0.3147  0.7305
 6948TIP3   OH237415   3.024   1.744   1.365  0.3494 -0.4651  0.4056
 6948TIP3    H137416   2.938   1.720   1.398 -0.0870  1.0947  0.5156
 6948TIP3    H237417   3.086   1.709   1.429 -0.1228 -2.3315 -0.1128
 6949TIP3   OH237418   0.150   2.792   7.344 -0.7513 -0.9406 -0.5369
 6949TIP3    H137419   0.167   2.731   7.272 -1.4087  0.3245 -1.8142
 6949TIP3    H237420   0.138   2.877   7.301 -1.0370 -0.1217  1.0876
 6950TIP3   OH237421   1.008   3.190   0.488  0.4366 -0.2519  0.5179
 6950TIP3    H137422   0.923   3.157   0.516 -0.2939  2.4681  1.8206
 6950TIP3    H237423   1.070   3.120   0.512 -1.1357 -1.3254  1.6526
 6951TIP3   OH237424   6.161   4.558   0.970 -0.1179  0.0000 -1.2701
 6951TIP3    H137425   6.255   4.561   0.954  0.2847  1.3932  0.9988
 6951TIP3    H237426   6.127   4.640   0.935 -0.9690 -1.4563 -4.1941
 6952TIP3   OH237427   2.283   5.753   0.777  0.1048  0.1267  0.4574
 6952TIP3    H137428   2.276   5.668   0.819  1.7159 -1.0381 -1.4510
 6952TIP3    H237429   2.199   5.767   0.735  0.2289 -1.1394 -0.2529
 6953TIP3   OH237430   4.389   1.071   1.302 -0.2287 -0.1181 -0.7302
 6953TIP3    H137431   4.361   1.089   1.392 -1.4882  1.9504 -1.4690
 6953TIP3    H237432   4.470   1.021   1.312  0.7452  1.7454  1.5803
 6954TIP3   OH237433   1.784   5.793   0.604  0.2641  0.0875 -0.5477
 6954TIP3    H137434   1.870   5.775   0.566  0.3905  0.4193 -0.4289
 6954TIP3    H237435   1.723   5.743   0.551  0.6030 -0.7349 -0.1879
 6955TIP3   OH237436   5.697   5.107   0.217 -0.0688  0.1165 -0.2411
 6955TIP3    H137437   5.604   5.122   0.235 -0.5009  0.3796 -2.3892
 6955TIP3    H237438   5.735   5.194   0.215 -0.0833  0.1136 -0.7758
 6956TIP3   OH237439   3.821   3.779   7.021  0.2160 -0.3758  0.5436
 6956TIP3    H137440   3.804   3.830   7.100 -0.0272 -1.1093  0.9803
 6956TIP3    H237441   3.804   3.839   6.949  0.1376  0.2132  1.0479
 6957TIP3   OH237442   4.211   3.516   8.247  0.5336 -0.8371 -0.1444
 6957TIP3    H137443   4.233   3.580   8.179  1.6199 -0.9146  0.1146
 6957TIP3    H237444   4.272   3.536   8.319 -0.5585 -0.7898  0.7907
 6958TIP3   OH237445   3.672   0.471   2.752 -0.8940  0.0871 -0.0955
 6958TIP3    H137446   3.650   0.521   2.831  1.3049 -4.4177  3.8824
 6958TIP3    H237447   3.767   0.461   2.755 -0.7657 -0.6737 -3.1796
 6959TIP3   OH237448   2.487   2.891   9.340 -0.3487 -0.4654 -0.4534
 6959TIP3    H137449   2.399   2.913   9.372 -0.4084 -0.2359 -0.7672
 6959TIP3    H237450   2.471   2.835   9.264 -0.2159 -0.7829 -0.2427
 6960TIP3   OH237451   4.600   1.595   2.336  0.0993 -0.1271 -0.3994
 6960TIP3    H137452   4.636   1.509   2.356  1.9368  0.8974  0.9540
 6960TIP3    H237453   4.579   1.633   2.421 -2.2411  0.1753 -1.0487
 6961TIP3   OH237454   2.786   1.112   7.219 -0.2749 -0.5750  0.0641
 6961TIP3    H137455   2.829   1.099   7.135 -1.6130 -0.8274 -0.6199
 6961TIP3    H237456   2.755   1.202   7.218 -0.0001 -0.4748  0.4278
 6962TIP3   OH237457   0.985   0.364   0.711  0.2199 -0.2482  0.0439
 6962TIP3    H137458   0.989   0.426   0.638  0.1777  0.6427  0.7817
 6962TIP3    H237459   0.921   0.402   0.771  1.6877  0.0377  1.4558
 6963TIP3   OH237460   3.161   6.098   7.528 -0.1081  0.0693 -0.0728
 6963TIP3    H137461   3.069   6.086   7.552  0.0030  0.1215  0.3819
 6963TIP3    H237462   3.195   6.159   7.594  0.5295 -0.8024  0.4250
 6964TIP3   OH237463   0.827   3.418   2.008  0.0353  0.0788  0.6743
 6964TIP3    H137464   0.821   3.355   1.936 -0.6676  0.2681  0.5590
 6964TIP3    H237465   0.746   3.404   2.059 -1.2669  2.4004 -0.6078
 6965TIP3   OH237466   1.113   5.021   2.469 -0.1271  0.4835 -0.0008
 6965TIP3    H137467   1.148   4.931   2.472 -0.2804  0.4420  1.1463
 6965TIP3    H237468   1.161   5.067   2.538 -0.0298  1.3005 -0.6004
 6966TIP3   OH237469   5.772   0.168   8.964 -0.0072  0.0724 -0.1565
 6966TIP3    H137470   5.721   0.165   8.882  1.2131 -0.7549 -0.9221
 6966TIP3    H237471   5.758   0.256   8.997 -1.2614  0.1409 -0.7729
 6967TIP3   OH237472   6.038   0.115   7.464 -0.3173 -0.2773 -0.4138
 6967TIP3    H137473   6.011   0.206   7.478  0.2496  0.0923 -1.6316
 6967TIP3    H237474   5.980   0.065   7.521  1.2667  1.0091  2.6161
 6968TIP3   OH237475   5.836   4.368   7.454 -0.2240  0.2296 -0.0741
 6968TIP3    H137476   5.864   4.313   7.527 -2.1511 -0.8899 -0.1114
 6968TIP3    H237477   5.885   4.449   7.465  1.6991 -0.9663  0.7661
 6969TIP3   OH237478   4.444   1.432   9.193  0.5175  0.0330 -0.4694
 6969TIP3    H137479   4.446   1.482   9.111 -0.5136  3.0336  1.1560
 6969TIP3    H237480   4.534   1.431   9.223  0.6419  0.4631 -0.8123
 6970TIP3   OH237481   0.212   1.898   2.203  0.3207 -0.4676 -0.3610
 6970TIP3    H137482   0.248   1.959   2.267 -0.0618  0.5737 -1.1139
 6970TIP3    H237483   0.131   1.939   2.172 -0.5440 -1.8932 -0.0680
 6971TIP3   OH237484   3.416   3.186   8.473 -0.8373 -0.1137  0.1569
 6971TIP3    H137485   3.359   3.179   8.551 -1.4223  1.7877 -0.0314
 6971TIP3    H237486   3.435   3.280   8.467  1.6641 -0.5930 -0.3010
 6972TIP3   OH237487   0.800   4.417   7.028 -0.0042 -0.1677  0.2829
 6972TIP3    H137488   0.889   4.407   7.061  0.8353  0.5141 -1.6280
 6972TIP3    H237489   0.808   4.478   6.954 -1.9241 -0.7065 -0.4408
 6973TIP3   OH237490   1.995   3.912   1.758 -0.4106  0.0911 -0.2240
 6973TIP3    H137491   1.936   3.986   1.745 -0.0446  0.4982  0.4050
 6973TIP3    H237492   2.014   3.912   1.852  1.2538  0.4938 -0.5247
 6974TIP3   OH237493   5.506   2.004   1.095 -0.5152 -0.3504 -0.0306
 6974TIP3    H137494   5.574   1.969   1.153  0.1975 -0.4808 -0.9298
 6974TIP3    H237495   5.428   2.010   1.151 -0.0847 -1.3172  0.7029
 6975TIP3   OH237496   1.785   1.250   2.572 -0.2322 -0.4064 -0.4071
 6975TIP3    H137497   1.819   1.240   2.661  1.1570 -1.8439 -1.0380
 6975TIP3    H237498   1.850   1.306   2.528 -0.9245  0.3207 -0.5284
 6976TIP3   OH237499   1.898   3.473   9.087  0.4103 -0.2962 -0.0796
 6976TIP3    H137500   1.966   3.493   9.023  1.6224  1.5877  1.6846
 6976TIP3    H237501   1.941   3.417   9.152  0.4237  1.0650  1.1527
 6977TIP3   OH237502   0.180   5.063   1.210  0.4006  0.1175  0.5274
 6977TIP3    H137503   0.207   5.059   1.118 -1.0386  2.7449 -0.1200
 6977TIP3    H237504   0.228   4.992   1.253  0.3206 -1.8699 -2.4180
 6978TIP3   OH237505   2.657   1.697   7.896 -0.0021 -0.0647  0.1443
 6978TIP3    H137506   2.616   1.771   7.853  1.4173  0.8681  0.3186
 6978TIP3    H237507   2.665   1.723   7.988 -0.9237 -1.0995  0.5486
 6979TIP3   OH237508   3.797   4.967   6.973  0.0814  0.3827 -0.2970
 6979TIP3    H137509   3.862   4.987   6.906 -0.4881 -0.6777 -1.2029
 6979TIP3    H237510   3.727   5.031   6.957  0.0263  0.2481 -0.6096
 6980TIP3   OH237511   1.786   6.061   0.682  0.0796 -0.0937  0.4762
 6980TIP3    H137512   1.824   6.110   0.609  0.3210 -0.2376  0.5052
 6980TIP3    H237513   1.766   5.975   0.645  0.4284 -0.2463  0.6454
 6981TIP3   OH237514   5.895   2.883   2.242 -0.0632 -0.1669  0.2346
 6981TIP3    H137515   5.931   2.919   2.161  1.9691 -0.1071  1.1140
 6981TIP3    H237516   5.880   2.960   2.297 -1.7368 -0.1770 -0.1409
 6982TIP3   OH237517   5.001   2.015   7.541 -0.3311 -0.0484 -0.1766
 6982TIP3    H137518   4.994   2.108   7.523 -0.2016  0.2234  1.0882
 6982TIP3    H237519   4.976   1.972   7.459  1.0508  1.0979 -1.2600
 6983TIP3   OH237520   4.350   1.555   0.456 -0.5790  0.1492  0.1702
 6983TIP3    H137521   4.431   1.599   0.430 -0.2048  0.1682  1.3465
 6983TIP3    H237522   4.364   1.463   0.434 -0.4994  0.2480 -0.2137
 6984TIP3   OH237523   3.107   3.808   7.932  0.2845 -0.1852  0.0056
 6984TIP3    H137524   3.064   3.759   8.001  0.4015  1.2221  1.1199
 6984TIP3    H237525   3.195   3.827   7.965 -0.6917  3.3653  1.0372
 6985TIP3   OH237526   3.908   3.977   1.171  0.4290  0.2224 -0.2310
 6985TIP3    H137527   4.002   3.996   1.178  0.5182  0.4300 -1.7349
 6985TIP3    H237528   3.867   4.041   1.229  1.0736  1.8884 -1.5067
 6986TIP3   OH237529   5.621   0.608   2.149 -0.0327  0.1718  0.1429
 6986TIP3    H137530   5.532   0.606   2.184 -0.6429  0.1856 -1.3259
 6986TIP3    H237531   5.677   0.621   2.226 -1.3711  1.3876  0.9562
 6987TIP3   OH237532   5.301   2.878   6.463  0.3263 -0.0861  0.1706
 6987TIP3    H137533   5.380   2.931   6.452 -0.2560  0.6156 -0.7391
 6987TIP3    H237534   5.230   2.936   6.438 -0.5162 -0.6204  1.2574
 6988TIP3   OH237535   4.893   6.200   0.582  0.5496 -0.1049  0.3076
 6988TIP3    H137536   4.977   6.219   0.622 -0.1880  0.4453  1.6801
 6988TIP3    H237537   4.836   6.176   0.656 -0.8387  0.8322 -0.3993
 6989TIP3   OH237538   2.403   2.067   9.141 -0.0723  0.0746  0.2557
 6989TIP3    H137539   2.360   2.152   9.132  0.4384  0.2668 -0.5063
 6989TIP3    H237540   2.439   2.068   9.230 -3.6441 -1.0796  1.8990
 6990TIP3   OH237541   3.673   5.859   1.701 -0.1454  0.0106  0.2477
 6990TIP3    H137542   3.681   5.953   1.685  1.6984 -0.1018  0.2487
 6990TIP3    H237543   3.726   5.819   1.632 -1.7263 -1.1164 -0.3698
 6991TIP3   OH237544   1.056   4.775   1.103  0.7792 -0.1201  0.2653
 6991TIP3    H137545   1.029   4.780   1.195  0.0136 -1.6055  0.1574
 6991TIP3    H237546   1.142   4.817   1.101  1.5833 -1.5300  1.9895
 6992TIP3   OH237547   1.554   1.305   2.071 -0.2574 -0.5554  0.3981
 6992TIP3    H137548   1.596   1.227   2.106 -0.4385 -0.0746  1.7565
 6992TIP3    H237549   1.625   1.356   2.032 -0.0256 -1.0536  0.1702
 6993TIP3   OH237550   5.712   2.014   1.777 -0.1635  0.3601 -0.3470
 6993TIP3    H137551   5.630   2.057   1.751 -1.0638 -1.0520  0.0573
 6993TIP3    H237552   5.716   1.935   1.723  1.1773  0.6433 -0.6869
 6994TIP3   OH237553   3.009   1.584   3.242  0.2192 -0.2995 -0.2868
 6994TIP3    H137554   2.931   1.563   3.191  0.1415  0.2649 -0.4131
 6994TIP3    H237555   2.993   1.545   3.328 -0.4588  0.2982 -0.1357
 6995TIP3   OH237556   2.810   3.663   7.891  0.2714 -0.5420 -0.3709
 6995TIP3    H137557   2.872   3.625   7.829  0.6596  0.9620 -0.9470
 6995TIP3    H237558   2.858   3.671   7.973  1.1145  1.3123 -1.0152
 6996TIP3   OH237559   4.581   3.239   7.137 -0.1194  0.0385  0.3030
 6996TIP3    H137560   4.498   3.209   7.175  0.5054  0.7933  2.3688
 6996TIP3    H237561   4.575   3.214   7.045 -2.4720 -0.2853  0.4781
 6997TIP3   OH237562   3.486   0.976   6.008  0.5777  0.0661  0.0781
 6997TIP3    H137563   3.404   1.015   6.040 -1.4568 -3.0945 -0.8491
 6997TIP3    H237564   3.539   0.965   6.087  0.4149  2.6336  0.6409
 6998TIP3   OH237565   1.200   0.135   0.539 -0.1462  0.0660 -0.2442
 6998TIP3    H137566   1.255   0.058   0.554 -0.5235 -0.3192 -0.8059
 6998TIP3    H237567   1.262   0.206   0.522  0.4572  0.9069  4.2373
 6999TIP3   OH237568   4.544   1.942   2.538 -0.2888 -0.1045 -0.6223
 6999TIP3    H137569   4.517   1.851   2.529 -0.3082 -0.0641 -0.9932
 6999TIP3    H237570   4.513   1.969   2.624 -1.0873 -0.1717 -0.8868
 7000TIP3   OH237571   5.060   3.199   7.681 -0.0836 -0.5557  0.4667
 7000TIP3    H137572   5.154   3.217   7.685  0.2315 -2.0254  0.4570
 7000TIP3    H237573   5.032   3.200   7.773 -0.5618  2.0626  0.3662
 7001TIP3   OH237574   0.811   6.432   2.101 -0.1769 -0.0131 -0.6338
 7001TIP3    H137575   0.882   6.455   2.041  1.0431  1.2777  1.2091
 7001TIP3    H237576   0.821   6.338   2.116  2.1730  0.3900  0.7742
 7002TIP3   OH237577   1.094   3.004   8.255 -0.4934 -0.3899 -0.1231
 7002TIP3    H137578   1.180   2.992   8.294 -0.9902  0.4039  1.2726
 7002TIP3    H237579   1.032   2.981   8.325 -1.4126  0.6410 -0.5666
 7003TIP3   OH237580   2.362   5.273   1.404 -0.5537 -0.6250  0.5124
 7003TIP3    H137581   2.375   5.185   1.440 -0.0878 -0.6246  0.3564
 7003TIP3    H237582   2.272   5.296   1.427 -0.6064 -1.0563  0.7410
 7004TIP3   OH237583   3.160   5.163   2.665 -0.1624 -0.0648 -0.4672
 7004TIP3    H137584   3.173   5.069   2.654 -2.7614 -0.7420  1.2105
 7004TIP3    H237585   3.142   5.174   2.758  1.2231  2.2973 -0.4088
 7005TIP3   OH237586   1.946   3.877   8.496  0.0981  0.0866  0.1767
 7005TIP3    H137587   1.913   3.824   8.422 -0.3931 -0.9646  1.1189
 7005TIP3    H237588   1.986   3.954   8.454 -0.3074 -0.4029 -1.1761
 7006TIP3   OH237589   3.556   4.277   2.049 -0.5503  0.9322 -0.7823
 7006TIP3    H137590   3.462   4.290   2.060 -1.0550 -0.7817 -2.5398
 7006TIP3    H237591   3.586   4.354   2.000 -0.8231  1.9055  0.5238
 7007TIP3   OH237592   0.484   1.702   6.646  0.0837  0.5482 -0.0116
 7007TIP3    H137593   0.574   1.676   6.625  0.9542  2.3972  1.1647
 7007TIP3    H237594   0.443   1.622   6.678  0.7361 -0.7524 -2.2058
 7008TIP3   OH237595   2.248   5.647   1.146 -0.2825 -0.6858  0.1058
 7008TIP3    H137596   2.230   5.603   1.062  1.3636  2.1676 -1.9015
 7008TIP3    H237597   2.336   5.618   1.170 -0.4123 -0.8321  0.4113
 7009TIP3   OH237598   2.363   0.463   3.998 -0.7713  0.4559 -0.0537
 7009TIP3    H137599   2.436   0.401   3.993 -0.6260  0.6342 -0.1420
 7009TIP3    H237600   2.373   0.518   3.921 -0.0874  1.4919  0.7426
 7010TIP3   OH237601   3.149   3.745   6.976 -0.2562  0.8109  0.5802
 7010TIP3    H137602   3.063   3.703   6.986  0.5421 -0.6450  1.5615
 7010TIP3    H237603   3.189   3.701   6.901 -0.0625  0.9576  0.5965
 7011TIP3   OH237604   1.000   2.021   8.311  0.5891 -0.6148  0.6249
 7011TIP3    H137605   0.906   2.039   8.312  0.2493 -2.2372  0.0228
 7011TIP3    H237606   1.016   1.981   8.225  1.6880 -1.0605  1.0243
 7012TIP3   OH237607   1.120   4.289   0.078  0.0706 -0.2623 -0.4600
 7012TIP3    H137608   1.169   4.208   0.091  0.3312  0.0991  0.9953
 7012TIP3    H237609   1.164   4.353   0.133 -2.0650  0.0718  0.9764
 7013TIP3   OH237610   5.605   3.799   7.823  0.1338  0.2320 -0.0308
 7013TIP3    H137611   5.645   3.794   7.910  0.4805 -0.0871 -0.2078
 7013TIP3    H237612   5.590   3.893   7.809 -0.1304  0.2693  0.4648
 7014TIP3   OH237613   3.827   4.927   1.018  0.3042  0.0539  0.0398
 7014TIP3    H137614   3.867   4.927   1.105 -0.1514 -1.1870  0.2632
 7014TIP3    H237615   3.770   5.004   1.018 -0.4943 -0.5184  1.2251
 7015TIP3   OH237616   5.848   5.214   7.894 -0.2425 -0.0066 -0.3607
 7015TIP3    H137617   5.919   5.192   7.954  1.5016  0.0598 -2.2816
 7015TIP3    H237618   5.813   5.297   7.927 -0.3426 -0.7250  1.3897
 7016TIP3   OH237619   6.151   4.860   9.141 -0.3742 -0.6701  0.5246
 7016TIP3    H137620   6.060   4.828   9.140 -1.4060  1.7773  2.5332
 7016TIP3    H237621   6.153   4.928   9.073 -0.0587 -0.7246  0.4800
 7017TIP3   OH237622   2.253   2.386   0.249 -0.1893 -0.3833  0.2821
 7017TIP3    H137623   2.200   2.353   0.322  1.2488 -2.0075  0.6512
 7017TIP3    H237624   2.316   2.444   0.291 -0.9287  0.6620 -0.0165
 7018TIP3   OH237625   1.523   0.278   1.463 -0.5929 -0.5089  0.0634
 7018TIP3    H137626   1.550   0.190   1.436  0.6013  0.5399 -2.4942
 7018TIP3    H237627   1.493   0.319   1.382 -1.7038  1.2687  1.3175
 7019TIP3   OH237628   2.722   0.243   2.889 -0.2460 -0.1391 -0.2983
 7019TIP3    H137629   2.640   0.247   2.841 -0.6099  0.1202  0.3237
 7019TIP3    H237630   2.768   0.167   2.853 -1.1180 -0.7847 -0.0984
 7020TIP3   OH237631   1.794   4.650   1.056 -0.1668  0.9547 -0.8599
 7020TIP3    H137632   1.702   4.636   1.033 -0.4553 -0.4691  0.9886
 7020TIP3    H237633   1.837   4.671   0.972 -1.6353 -1.2078 -2.2415
 7021TIP3   OH237634   0.712   2.435   0.403  0.1976 -0.6640  0.5092
 7021TIP3    H137635   0.724   2.515   0.352 -0.9509 -1.5114 -1.1624
 7021TIP3    H237636   0.625   2.403   0.379 -0.0480 -1.5541  2.4032
 7022TIP3   OH237637   5.250   0.402   0.827  0.0483 -0.3429 -0.0982
 7022TIP3    H137638   5.253   0.455   0.748  2.9255  0.3296  0.3383
 7022TIP3    H237639   5.269   0.313   0.797 -0.0043 -0.2902 -0.2879
 7023TIP3   OH237640   1.798   1.473   1.459  0.4493  0.2143  0.2332
 7023TIP3    H137641   1.733   1.402   1.468  1.2334 -0.3280  2.2596
 7023TIP3    H237642   1.745   1.553   1.454 -0.4205 -0.3999 -0.9314
 7024TIP3   OH237643   2.629   0.998   9.203  0.4112 -0.3934 -0.5557
 7024TIP3    H137644   2.567   1.040   9.264 -1.1503 -0.5915 -1.9230
 7024TIP3    H237645   2.624   0.905   9.225  2.7761 -0.1349  1.5046
 7025TIP3   OH237646   4.638   4.355   6.938 -0.1910 -0.3785  0.3684
 7025TIP3    H137647   4.574   4.427   6.933 -0.9574 -0.9803  1.1953
 7025TIP3    H237648   4.678   4.364   7.024  0.6444 -0.1856 -0.0308
 7026TIP3   OH237649   4.459   4.244   9.273 -0.5135  0.0371 -0.5381
 7026TIP3    H137650   4.458   4.155   9.308  1.0277  0.1592 -0.1150
 7026TIP3    H237651   4.532   4.245   9.211 -0.8187  0.8804 -0.9126
 7027TIP3   OH237652   5.996   5.532   6.555  0.3229  0.1594 -0.0969
 7027TIP3    H137653   6.045   5.598   6.507 -0.6981  0.5601 -0.6342
 7027TIP3    H237654   5.904   5.553   6.537 -0.0384 -0.8785  0.4435
 7028TIP3   OH237655   2.557   5.345   7.776 -0.1066  0.2322 -0.2330
 7028TIP3    H137656   2.571   5.366   7.868 -0.6561  0.6349 -0.2335
 7028TIP3    H237657   2.462   5.347   7.765 -0.1106 -0.8720 -0.5683
 7029TIP3   OH237658   3.991   6.017   7.262  0.4387 -0.3200  0.2663
 7029TIP3    H137659   4.084   5.998   7.261  0.6211  0.4602  0.8843
 7029TIP3    H237660   3.949   5.938   7.227  1.4804  0.3631 -2.8007
 7030TIP3   OH237661   6.150   2.270   7.580 -0.3577 -0.4991 -0.0224
 7030TIP3    H137662   6.076   2.324   7.551  0.1052 -0.5925 -1.4870
 7030TIP3    H237663   6.110   2.191   7.615 -0.9696 -0.4646 -0.6142
 7031TIP3   OH237664   3.224   1.883   1.014 -0.1936 -0.7618 -0.3180
 7031TIP3    H137665   3.219   1.940   1.090  1.3591 -2.0726  0.8530
 7031TIP3    H237666   3.161   1.919   0.952 -0.1103  1.4849  0.8110
 7032TIP3   OH237667   0.045   4.975   6.285  0.6643  0.0389  0.4042
 7032TIP3    H137668  -0.044   4.953   6.315  1.0731 -1.5134  0.5872
 7032TIP3    H237669   0.090   5.006   6.364 -0.2635  2.9268 -0.0866
 7033TIP3   OH237670   1.881   6.370   2.431  0.5065 -0.3839 -0.3848
 7033TIP3    H137671   1.969   6.381   2.467  0.6994  1.9322 -1.3869
 7033TIP3    H237672   1.893   6.309   2.358  1.0739 -0.9395  0.1633
 7034TIP3   OH237673   5.334   3.391   7.468 -1.1016  0.4737 -0.4101
 7034TIP3    H137674   5.335   3.309   7.418 -2.1420  0.1079  0.1344
 7034TIP3    H237675   5.402   3.380   7.534 -2.6718 -0.9006  1.0743
 7035TIP3   OH237676   0.644   3.425   1.632 -0.1404  0.0050 -0.7331
 7035TIP3    H137677   0.686   3.445   1.548  0.8518 -1.2492 -0.5812
 7035TIP3    H237678   0.597   3.343   1.616 -0.9375  0.3787 -0.3640
 7036TIP3   OH237679   2.519   5.442   1.849  1.0889 -0.1075  0.0788
 7036TIP3    H137680   2.567   5.384   1.790  1.2446  0.6418 -0.5603
 7036TIP3    H237681   2.581   5.460   1.921  0.6139 -1.6607  0.9112
 7037TIP3   OH237682   5.533   2.507   1.837  0.2046 -0.0526  0.5635
 7037TIP3    H137683   5.616   2.462   1.823 -1.1907 -2.3397 -1.1684
 7037TIP3    H237684   5.467   2.445   1.806 -2.1384  1.8388  1.4666
 7038TIP3   OH237685   4.020   5.361   2.162  0.1150  0.1850 -0.0972
 7038TIP3    H137686   4.023   5.274   2.124 -1.2444  0.1548 -0.2037
 7038TIP3    H237687   4.098   5.367   2.216  2.6995  0.5866 -3.5703
 7039TIP3   OH237688   1.459   2.163   8.408 -0.2051 -0.0451 -0.2430
 7039TIP3    H137689   1.523   2.193   8.344  0.0268  0.2167  0.1077
 7039TIP3    H237690   1.453   2.234   8.472  0.7622 -0.9360  0.8928
 7040TIP3   OH237691   3.730   0.460   0.099  0.2886  0.4790 -0.5580
 7040TIP3    H137692   3.660   0.523   0.117 -1.2623 -1.2435 -0.2350
 7040TIP3    H237693   3.811   0.509   0.114 -0.8460  1.9927  1.1023
 7041TIP3   OH237694   3.420   4.147   7.995 -0.0281  0.4712  0.1525
 7041TIP3    H137695   3.375   4.210   7.938 -1.1702 -0.9150 -0.5596
 7041TIP3    H237696   3.381   4.062   7.972 -0.0306 -0.2497  2.5255
 7042TIP3   OH237697   5.751   0.582   7.390  0.5180  0.1445  0.7709
 7042TIP3    H137698   5.808   0.538   7.454  0.4821 -0.1802  0.5826
 7042TIP3    H237699   5.812   0.628   7.332  0.7013 -1.4384 -0.3555
 7043TIP3   OH237700   1.665   3.223   0.736 -0.2812 -0.1591 -0.1459
 7043TIP3    H137701   1.618   3.144   0.711 -3.1003  1.9662 -2.2534
 7043TIP3    H237702   1.699   3.258   0.654  1.4378  0.5915  0.8219
 7044TIP3   OH237703   2.845   4.881   2.195  0.6941  0.3177  0.4426
 7044TIP3    H137704   2.831   4.945   2.126 -0.9024  1.4414  1.7274
 7044TIP3    H237705   2.823   4.797   2.156 -0.3654  0.9532 -0.3707
 7045TIP3   OH237706   2.593   4.111   0.744  0.3334 -0.0315  0.2620
 7045TIP3    H137707   2.535   4.053   0.694 -0.6588  0.6016  0.6487
 7045TIP3    H237708   2.679   4.069   0.740  0.3951  0.1625 -2.2773
 7046TIP3   OH237709   2.931   1.235   2.741 -0.0455 -0.1615 -0.2037
 7046TIP3    H137710   2.906   1.280   2.822  0.3953  1.0222 -0.6897
 7046TIP3    H237711   3.021   1.205   2.757  0.0745  0.1511 -0.2722
 7047TIP3   OH237712   2.914   3.520   6.575 -0.6457 -0.1988 -0.2482
 7047TIP3    H137713   2.838   3.571   6.550  0.3949  1.0002 -1.0859
 7047TIP3    H237714   2.987   3.581   6.569  0.2719 -1.0650  1.4558
 7048TIP3   OH237715   5.683   1.958   7.971 -0.7028 -0.2821 -0.2660
 7048TIP3    H137716   5.713   1.881   7.923 -0.1491 -0.6565  0.6549
 7048TIP3    H237717   5.729   2.031   7.931  2.0630 -0.8886  1.5033
 7049TIP3   OH237718   6.415   3.588   1.059 -0.0895 -0.0532 -0.0580
 7049TIP3    H137719   6.335   3.550   1.096  1.3863 -3.1353  0.2869
 7049TIP3    H237720   6.443   3.525   0.992  2.0868  0.8758 -0.1036
 7050TIP3   OH237721   5.894   0.138   0.396  0.4253 -0.2360  0.3544
 7050TIP3    H137722   5.933   0.212   0.443 -0.3226  1.1140 -1.0299
 7050TIP3    H237723   5.801   0.142   0.418  0.6430 -2.0201  1.8203
 7051TIP3   OH237724   4.280   1.185   9.198  0.1335  0.3635  0.2356
 7051TIP3    H137725   4.336   1.258   9.173  0.9149 -0.3126  0.0031
 7051TIP3    H237726   4.320   1.108   9.159  0.5684 -0.5249  2.2949
 7052TIP3   OH237727   6.259   4.091   7.683 -0.0354  0.1185 -0.1526
 7052TIP3    H137728   6.236   4.074   7.774  0.8056 -0.2630 -0.0040
 7052TIP3    H237729   6.349   4.124   7.686 -0.0842  0.3401 -0.8240
 7053TIP3   OH237730   2.009   3.913   7.275 -0.3062  0.1247  0.0847
 7053TIP3    H137731   2.033   3.996   7.235  1.7611 -0.3608  0.1987
 7053TIP3    H237732   1.913   3.916   7.281 -0.2903  2.4713  0.0980
 7054TIP3   OH237733   6.284   2.523   8.997 -0.2142 -0.5420  0.4541
 7054TIP3    H137734   6.307   2.507   8.906  0.9848 -1.7757  0.9586
 7054TIP3    H237735   6.190   2.503   9.001 -0.4007  0.0180 -0.5948
 7055TIP3   OH237736   5.629   3.114   8.771 -0.1776  0.3318  0.1650
 7055TIP3    H137737   5.693   3.134   8.839 -0.7584  1.2044  0.4745
 7055TIP3    H237738   5.563   3.060   8.815  0.4250 -0.7429 -0.2037
 7056TIP3   OH237739   0.114   4.454   2.971 -0.2190  0.5626 -0.6660
 7056TIP3    H137740   0.175   4.492   3.033 -0.4310  0.3796 -0.3438
 7056TIP3    H237741   0.165   4.387   2.925 -0.2092  0.3234 -0.3101
 7057TIP3   OH237742   3.061   0.947   8.000  0.0220 -0.3833  0.1767
 7057TIP3    H137743   3.027   1.036   8.011  2.6707  0.5981  1.2909
 7057TIP3    H237744   3.089   0.943   7.908 -1.8004 -0.7769 -0.4002
 7058TIP3   OH237745   2.850   4.592   1.492 -0.4827  0.4955  0.0153
 7058TIP3    H137746   2.798   4.548   1.425  0.3940  1.9088 -1.6793
 7058TIP3    H237747   2.938   4.595   1.455 -0.1840  2.1988  0.7896
 7059TIP3   OH237748   3.652   1.585   1.338 -0.2918  0.5838 -0.0923
 7059TIP3    H137749   3.623   1.535   1.415  0.5188 -1.1848 -0.8700
 7059TIP3    H237750   3.571   1.614   1.296 -0.7496  1.8053  1.5242
 7060TIP3   OH237751   4.910   2.552   8.531  0.3891 -0.3568 -0.4551
 7060TIP3    H137752   4.839   2.488   8.523 -0.8480  0.9735 -0.5254
 7060TIP3    H237753   4.865   2.636   8.534  1.8686  0.4251  1.2078
 7061TIP3   OH237754   0.858   3.014   8.065  0.1270 -0.1006  0.4348
 7061TIP3    H137755   0.919   3.018   8.139  1.1049  2.4381 -0.3909
 7061TIP3    H237756   0.817   2.928   8.072  1.7718 -0.7951  2.6474
 7062TIP3   OH237757   0.358   1.704   8.634  0.0561  0.2197  0.2218
 7062TIP3    H137758   0.452   1.724   8.627 -0.1035  0.8812 -0.0978
 7062TIP3    H237759   0.347   1.677   8.725  0.8969 -1.7491 -0.2222
 7063TIP3   OH237760   4.990   5.920   1.449 -0.3016  0.2366 -0.6852
 7063TIP3    H137761   5.085   5.928   1.452 -0.1131 -1.8788  0.7566
 7063TIP3    H237762   4.974   5.827   1.434 -2.1571  0.5476 -0.8806
 7064TIP3   OH237763   6.320   3.369   0.643  0.2669  0.5306  0.1924
 7064TIP3    H137764   6.323   3.277   0.668  1.2723  0.8364  1.3104
 7064TIP3    H237765   6.313   3.369   0.548 -2.1475 -0.7053  0.2881
 7065TIP3   OH237766   3.643   4.927   8.308 -0.0796 -0.4081 -0.1924
 7065TIP3    H137767   3.557   4.931   8.350  0.4936  0.9187  0.9454
 7065TIP3    H237768   3.627   4.882   8.225 -1.8073 -0.4796  0.1333
 7066TIP3   OH237769   0.622   3.036   8.940  0.0926 -0.4838 -0.0238
 7066TIP3    H137770   0.642   2.944   8.957 -0.6405 -0.4069  1.3875
 7066TIP3    H237771   0.697   3.084   8.974  1.1005 -0.5961 -1.9734
 7067TIP3   OH237772   5.478   3.922   6.693  0.6910 -0.2442  0.8528
 7067TIP3    H137773   5.437   3.872   6.764 -1.4442  0.3427  0.1055
 7067TIP3    H237774   5.558   3.957   6.731  0.8844 -2.0174  2.1924
 7068TIP3   OH237775   1.246   5.118   0.365 -1.1735  0.5799 -0.6670
 7068TIP3    H137776   1.217   5.120   0.457 -0.0116 -0.7917 -0.2332
 7068TIP3    H237777   1.204   5.194   0.325 -2.0201  0.9862  0.9076
 7069TIP3   OH237778   5.531   1.285   0.365 -0.2590 -0.0162  0.7559
 7069TIP3    H137779   5.459   1.224   0.351 -1.5592  1.1130  2.2123
 7069TIP3    H237780   5.610   1.231   0.354 -1.3366 -2.0380  2.2681
 7070TIP3   OH237781   0.612   3.329   7.556 -0.3419 -0.4250 -0.4678
 7070TIP3    H137782   0.620   3.243   7.515 -2.2491 -1.7555  1.7747
 7070TIP3    H237783   0.519   3.337   7.578  0.1560  1.2997  1.2697
 7071TIP3   OH237784   3.773   4.243   8.492  0.4963 -0.6329  0.2166
 7071TIP3    H137785   3.727   4.171   8.451  1.3639 -0.5387 -0.9655
 7071TIP3    H237786   3.866   4.222   8.482  0.9084  1.8386 -2.5864
 7072TIP3   OH237787   3.963   5.901   8.856 -0.5975 -0.1594 -0.5275
 7072TIP3    H137788   3.868   5.900   8.869 -0.5911 -0.1717 -0.4827
 7072TIP3    H237789   3.982   5.989   8.825 -0.7699 -0.4735 -1.5831
 7073TIP3   OH237790   3.854   0.526   2.098  0.3019  0.3502  0.0534
 7073TIP3    H137791   3.854   0.510   2.004  0.0981  1.4486 -0.1358
 7073TIP3    H237792   3.762   0.529   2.122  0.3335 -1.6391  0.6079
 7074TIP3   OH237793   3.195   5.849   0.609  0.2513  0.1156 -0.1183
 7074TIP3    H137794   3.156   5.818   0.527 -1.8380  0.2409  0.7811
 7074TIP3    H237795   3.154   5.797   0.677  0.8123  1.0617  0.9868
 7075TIP3   OH237796   0.031   1.902   2.441 -0.6264  0.3012  0.0220
 7075TIP3    H137797   0.120   1.875   2.464  0.2271 -0.1472 -3.2700
 7075TIP3    H237798   0.028   1.996   2.461  0.7122  0.3947 -0.1474
 7076TIP3   OH237799   1.535   5.318   8.279  0.1437 -0.4522  0.2223
 7076TIP3    H137800   1.567   5.241   8.231 -0.0072 -0.1421 -0.3975
 7076TIP3    H237801   1.588   5.390   8.244 -0.7220 -0.0457 -0.2898
 7077TIP3   OH237802   4.490   4.037   2.890  0.1939 -0.3284 -0.2804
 7077TIP3    H137803   4.466   4.113   2.942  0.5988  0.1599 -0.8048
 7077TIP3    H237804   4.536   3.979   2.952  0.3724  0.0910 -0.0200
 7078TIP3   OH237805   2.041   5.295   2.405 -0.1602 -0.0875  0.2620
 7078TIP3    H137806   2.051   5.346   2.325  2.0527  1.2879  1.3023
 7078TIP3    H237807   2.114   5.233   2.404 -0.4258 -0.4276  0.9621
 7079TIP3   OH237808   4.267   0.301   7.602 -0.3131  0.3183 -0.4232
 7079TIP3    H137809   4.322   0.242   7.654 -0.8202  0.2239  0.0146
 7079TIP3    H237810   4.263   0.382   7.654 -0.4621  0.3803 -0.5299
 7080TIP3   OH237811   5.470   1.884   1.705 -0.5694  0.1106 -0.0335
 7080TIP3    H137812   5.384   1.850   1.680 -0.5254  0.8830 -1.3483
 7080TIP3    H237813   5.461   1.979   1.697  0.3920  0.2006 -0.1749
 7081TIP3   OH237814   4.408   1.273   0.276  0.2601 -0.1949  0.3688
 7081TIP3    H137815   4.375   1.203   0.220  2.2273 -0.6053 -0.3563
 7081TIP3    H237816   4.422   1.347   0.216  1.8224 -0.4512  0.3740
 7082TIP3   OH237817   5.907   4.029   7.697  0.4738 -0.1952  0.3456
 7082TIP3    H137818   5.969   4.078   7.643  0.4979 -1.8010 -1.1682
 7082TIP3    H237819   5.867   4.095   7.753  2.3821  1.1321  0.2464
 7083TIP3   OH237820   5.695   3.952   6.865 -1.3327 -0.0033 -0.1035
 7083TIP3    H137821   5.687   4.017   6.935  0.4022  1.2582 -0.9954
 7083TIP3    H237822   5.752   3.884   6.901 -0.0887  0.8545 -0.3727
 7084TIP3   OH237823   3.054   5.784   2.392 -0.1322 -0.4476  0.4833
 7084TIP3    H137824   3.123   5.790   2.458  2.3851  1.6355 -2.0714
 7084TIP3    H237825   3.097   5.747   2.315 -2.4563 -0.9986 -0.6588
 7085TIP3   OH237826   0.492   6.217   6.686  0.6050  0.1722 -0.7179
 7085TIP3    H137827   0.461   6.128   6.670 -0.6777  0.4586  0.0699
 7085TIP3    H237828   0.560   6.207   6.753 -0.2265 -0.1474  0.1042
 7086TIP3   OH237829   4.014   5.864   1.105 -0.5189  0.5885 -0.1311
 7086TIP3    H137830   4.071   5.901   1.038  0.2274  0.4618  0.4131
 7086TIP3    H237831   3.994   5.938   1.163 -1.4077  0.7644 -0.6502
 7087TIP3   OH237832   1.786   1.525   6.217 -0.0781  0.3683  0.4732
 7087TIP3    H137833   1.780   1.505   6.123  1.4833 -1.0027  0.6187
 7087TIP3    H237834   1.822   1.613   6.221  0.2241  0.2860 -0.2211
 7088TIP3   OH237835   3.778   5.105   9.342 -0.1967 -0.0147  0.2853
 7088TIP3    H137836   3.796   5.050   9.418 -1.9731 -2.0850 -0.6849
 7088TIP3    H237837   3.708   5.060   9.296 -1.8663  3.1122 -0.5701
 7089TIP3   OH237838   0.568   2.241   1.873 -0.3333 -0.1979 -0.5376
 7089TIP3    H137839   0.551   2.243   1.967  1.0535  0.7376 -0.2700
 7089TIP3    H237840   0.654   2.200   1.865  0.1247  0.8502 -1.2715
 7090TIP3   OH237841   1.733   3.669   6.319 -0.4869  0.0298 -0.9294
 7090TIP3    H137842   1.718   3.606   6.248 -0.9358  1.1267 -1.8520
 7090TIP3    H237843   1.735   3.616   6.399 -1.5915 -1.0730 -1.5909
 7091TIP3   OH237844   0.506   3.253   0.354 -0.4300 -0.2118  0.3160
 7091TIP3    H137845   0.427   3.200   0.340 -0.4848 -0.6090  1.9042
 7091TIP3    H237846   0.483   3.312   0.426 -0.1715  1.6183 -1.0433
 7092TIP3   OH237847   1.870   1.571   7.996  0.5783  0.1545 -0.0109
 7092TIP3    H137848   1.962   1.590   7.979  0.6406 -0.5368 -0.5103
 7092TIP3    H237849   1.863   1.476   7.989 -0.3777  0.2669 -1.1360
 7093TIP3   OH237850   3.090   2.995   7.142 -0.0531  0.3167  0.1339
 7093TIP3    H137851   3.149   3.034   7.077  0.1792  0.5185  0.4639
 7093TIP3    H237852   3.139   2.999   7.224 -0.7934  1.1097  0.5506
 7094TIP3   OH237853   6.411   0.105   0.037  0.0661  0.2838 -0.3301
 7094TIP3    H137854   6.497   0.098   0.079  0.4423 -1.2286 -1.2786
 7094TIP3    H237855   6.349   0.081   0.106  0.5494 -0.4435 -0.1425
 7095TIP3   OH237856   4.882   1.423   2.151  0.1982 -0.1212  0.1685
 7095TIP3    H137857   4.914   1.334   2.169 -0.1131 -0.1621  0.5340
 7095TIP3    H237858   4.950   1.481   2.184  0.3129 -0.2209  0.1075
 7096TIP3   OH237859   6.203   0.238   0.991  0.6692  0.3971  0.7356
 7096TIP3    H137860   6.174   0.151   1.018 -0.9558  0.8700  0.6135
 7096TIP3    H237861   6.269   0.221   0.924  0.8403 -0.7444  1.1677
 7097TIP3   OH237862   4.209   0.604   7.687 -0.5557 -0.0498  0.4876
 7097TIP3    H137863   4.117   0.620   7.664 -0.2109  0.4752 -0.5933
 7097TIP3    H237864   4.224   0.657   7.765 -1.4380 -0.9355  1.2802
 7098TIP3   OH237865   3.554   4.512   0.754 -0.4565 -0.2637 -0.2298
 7098TIP3    H137866   3.544   4.595   0.801 -1.5812 -1.5826  2.0094
 7098TIP3    H237867   3.465   4.477   0.748 -0.1273 -0.8810 -2.0123
 7099TIP3   OH237868   4.209   6.380   2.900 -0.0251 -0.0716  0.0261
 7099TIP3    H137869   4.207   6.316   2.970 -1.3973  2.0520  2.0720
 7099TIP3    H237870   4.180   6.462   2.941 -2.0841  1.0381 -3.2447
 7100TIP3   OH237871   0.713   3.933   7.496  0.3110  0.4385  0.3997
 7100TIP3    H137872   0.787   3.899   7.547  0.5011  1.5418  0.9083
 7100TIP3    H237873   0.638   3.883   7.526  0.9658 -1.3363 -0.7680
 7101TIP3   OH237874   1.884   1.291   8.042  0.4726 -0.1079 -0.0075
 7101TIP3    H137875   1.946   1.313   8.112  1.1300  2.3962 -1.2843
 7101TIP3    H237876   1.927   1.220   7.993  0.7685 -0.7043  1.0725
 7102TIP3   OH237877   1.000   4.113   2.230  0.0297 -0.1065  0.0464
 7102TIP3    H137878   1.044   4.070   2.303  0.1974  0.2449  0.1554
 7102TIP3    H237879   0.968   4.042   2.176 -1.2018 -0.4070  1.1127
 7103TIP3   OH237880   0.185   5.251   7.384  0.0567 -0.1732 -0.4447
 7103TIP3    H137881   0.252   5.235   7.450  1.6006  2.0719 -1.3564
 7103TIP3    H237882   0.106   5.270   7.435  0.3595 -1.6897  0.6708
 7104TIP3   OH237883   5.307   1.124   9.032 -0.5321 -0.0340 -0.3492
 7104TIP3    H137884   5.298   1.097   9.123 -1.4173 -1.9408 -0.9551
 7104TIP3    H237885   5.239   1.191   9.020 -1.2423 -0.6566  0.0932
 7105TIP3   OH237886   6.391   4.932   0.648 -0.0608  0.4651  0.0725
 7105TIP3    H137887   6.303   4.916   0.612  0.6272 -1.1544 -1.0279
 7105TIP3    H237888   6.438   4.976   0.577  0.1959  0.8081  0.4496
 7106TIP3   OH237889   6.344   2.159   8.775  0.2160  0.4088 -0.1132
 7106TIP3    H137890   6.413   2.152   8.708  1.4172 -0.4822  1.1505
 7106TIP3    H237891   6.326   2.068   8.800 -1.1425  0.6587 -0.1183
 7107TIP3   OH237892   1.634   0.135   0.430  0.4249 -0.1654 -0.3126
 7107TIP3    H137893   1.685   0.208   0.394 -0.1093 -0.2134 -1.1998
 7107TIP3    H237894   1.544   0.152   0.403  0.5195 -2.0193 -2.1148
 7108TIP3   OH237895   1.374   4.173   8.028  0.4896  0.3381  0.1367
 7108TIP3    H137896   1.448   4.156   7.969  0.7873  1.6357  0.1066
 7108TIP3    H237897   1.413   4.217   8.103 -0.2422  0.9228  0.1812
 7109TIP3   OH237898   2.496   4.176   2.730 -0.6776  0.1318  0.0073
 7109TIP3    H137899   2.509   4.082   2.719 -1.6174  0.0574 -0.5534
 7109TIP3    H237900   2.494   4.189   2.825 -0.6636 -0.4273  0.0857
 7110TIP3   OH237901   4.828   2.173   8.508  0.1689 -0.2526  0.2634
 7110TIP3    H137902   4.899   2.237   8.510  0.2492 -0.1936 -1.8279
 7110TIP3    H237903   4.776   2.192   8.586 -0.4814  3.2069 -0.8074
 7111TIP3   OH237904   5.216   1.083   7.532 -0.0156  0.0223  0.4495
 7111TIP3    H137905   5.175   1.168   7.546  2.0431  1.2431 -0.5087
 7111TIP3    H237906   5.216   1.071   7.437  1.1008 -0.2994  0.4748
 7112TIP3   OH237907   6.467   0.356   0.275 -0.4626 -0.0289 -0.5927
 7112TIP3    H137908   6.454   0.362   0.369 -0.0754  2.6991 -0.6303
 7112TIP3    H237909   6.382   0.327   0.240 -0.8333 -0.2985  0.5052
 7113TIP3   OH237910   6.470   5.659   2.029 -0.2069 -0.3430  0.5359
 7113TIP3    H137911   6.384   5.621   2.051  0.3865 -2.4262 -0.4362
 7113TIP3    H237912   6.458   5.693   1.940  0.2824 -1.9504 -0.1980
 7114TIP3   OH237913   4.069   5.525   8.436 -0.2598 -0.8326  0.5698
 7114TIP3    H137914   4.109   5.547   8.520 -2.6220  1.3331  1.2791
 7114TIP3    H237915   3.999   5.463   8.457  0.0662 -1.4208 -0.0289
 7115TIP3   OH237916   0.157   0.856   0.208  0.0828 -0.1490  0.0643
 7115TIP3    H137917   0.112   0.807   0.276  2.5123 -0.5417  1.5065
 7115TIP3    H237918   0.248   0.826   0.212  0.6131  0.8195 -2.4488
 7116TIP3   OH237919   3.061   0.382   0.464  0.6569  0.2502  0.5653
 7116TIP3    H137920   2.973   0.346   0.456  0.0947  1.5215  0.7875
 7116TIP3    H237921   3.112   0.335   0.398  0.3894 -2.1382  1.9302
 7117TIP3   OH237922   3.240   2.181   0.518 -0.2648 -0.1669 -0.2092
 7117TIP3    H137923   3.237   2.189   0.423 -1.6430 -0.1535 -0.1811
 7117TIP3    H237924   3.265   2.090   0.534  0.3747 -0.0577 -0.5788
 7118TIP3   OH237925   2.370   2.502   2.632  0.7544  0.4414  0.5240
 7118TIP3    H137926   2.423   2.582   2.624  0.9107  0.2509 -0.4436
 7118TIP3    H237927   2.377   2.460   2.546  0.6052 -0.5757  0.9957
 7119TIP3   OH237928   4.292   1.041   6.500  0.1019  0.1844  0.8964
 7119TIP3    H137929   4.256   1.051   6.588 -2.2023  1.5776 -0.0916
 7119TIP3    H237930   4.215   1.024   6.445  1.0582  2.2398 -1.2366
 7120TIP3   OH237931   0.770   0.800   7.159  0.1256 -0.1080 -0.5280
 7120TIP3    H137932   0.797   0.853   7.085 -1.0656 -0.2881 -1.1077
 7120TIP3    H237933   0.786   0.710   7.131 -0.3641 -0.1788 -0.5879
 7121TIP3   OH237934   4.139   1.083   2.417 -0.2956 -0.4146  0.2225
 7121TIP3    H137935   4.208   1.019   2.399 -0.4718 -0.4282 -0.4491
 7121TIP3    H237936   4.103   1.103   2.330 -2.1380 -1.5089  0.6962
 7122TIP3   OH237937   0.903   6.402   7.586  0.3208 -0.3450  0.0109
 7122TIP3    H137938   0.961   6.328   7.569 -0.9943 -1.1373 -1.2633
 7122TIP3    H237939   0.818   6.362   7.602 -0.6830  0.8899 -1.8719
 7123TIP3   OH237940   2.522   6.343   9.395  0.2203 -0.1729  0.1890
 7123TIP3    H137941   2.575   6.295   9.459 -1.1949 -0.7723  0.9405
 7123TIP3    H237942   2.587   6.381   9.335  1.5317 -0.4335  1.3738
 7124TIP3   OH237943   1.908   5.481   8.298  0.4549 -0.8306  0.0685
 7124TIP3    H137944   1.980   5.506   8.240  0.4042  1.0198  0.7261
 7124TIP3    H237945   1.915   5.541   8.372 -2.0493 -0.2180 -0.0788
 7125TIP3   OH237946   1.597   4.478   9.381  0.0022  0.7783  0.0751
 7125TIP3    H137947   1.603   4.400   9.436  0.2139  0.4210 -0.4393
 7125TIP3    H237948   1.523   4.527   9.416 -0.3506  0.1726  0.1865
 7126TIP3   OH237949   0.507   2.786   6.724 -0.3093  0.1049 -0.5518
 7126TIP3    H137950   0.426   2.765   6.679 -1.4727 -1.1157  1.8895
 7126TIP3    H237951   0.574   2.734   6.679 -1.0606  0.2972 -1.9252
 7127TIP3   OH237952   6.125   1.104   0.866  0.0122  0.6212 -0.6260
 7127TIP3    H137953   6.144   1.024   0.915 -1.6490 -0.2212 -1.2731
 7127TIP3    H237954   6.189   1.167   0.898  0.0890 -0.3842  1.3892
 7128TIP3   OH237955   3.363   1.187   7.333 -0.6192  0.0311  0.5902
 7128TIP3    H137956   3.383   1.253   7.266  1.0007  0.1733  1.1618
 7128TIP3    H237957   3.276   1.210   7.364 -0.5651  1.2050 -0.0579
 7129TIP3   OH237958   2.195   3.779   2.653  0.1488 -0.7422  0.7158
 7129TIP3    H137959   2.187   3.684   2.648 -0.4782 -0.7512  1.6343
 7129TIP3    H237960   2.264   3.795   2.718  0.1433 -0.5626  0.6805
 7130TIP3   OH237961   2.406   3.153   0.238 -0.1616  0.2131 -0.2704
 7130TIP3    H137962   2.481   3.213   0.243 -0.2603  0.2333  2.2754
 7130TIP3    H237963   2.422   3.088   0.306 -1.1249 -1.4545 -1.5462
 7131TIP3   OH237964   2.168   6.387   2.516 -0.2867  0.0654 -0.2030
 7131TIP3    H137965   2.237   6.453   2.504 -1.7639  1.8894  0.8098
 7131TIP3    H237966   2.161   6.343   2.432  0.5108  1.4505 -1.0236
 7132TIP3   OH237967   2.637   1.255   0.646  0.5144 -0.2384  0.0020
 7132TIP3    H137968   2.725   1.244   0.610 -0.2394 -2.9751 -1.2478
 7132TIP3    H237969   2.579   1.251   0.570 -0.8203 -0.3749  0.9811
 7133TIP3   OH237970   5.302   3.876   7.879 -0.1679  0.4468  0.4142
 7133TIP3    H137971   5.348   3.888   7.962 -0.9358 -0.3163  0.9685
 7133TIP3    H237972   5.280   3.783   7.877 -0.4585  0.5237 -0.4901
 7134TIP3   OH237973   3.732   3.522   9.153  0.0661  0.1895 -0.5600
 7134TIP3    H137974   3.741   3.492   9.062  3.1780  2.2816 -1.1143
 7134TIP3    H237975   3.816   3.501   9.193 -0.7754  0.5069  1.4749
 7135TIP3   OH237976   1.325   4.179   2.312  0.7005  0.5182 -0.4382
 7135TIP3    H137977   1.419   4.164   2.318  0.4850 -1.7622 -1.7022
 7135TIP3    H237978   1.311   4.217   2.226  0.3405 -0.8834 -1.0354
 7136TIP3   OH237979   0.371   0.186   8.496  0.1276  0.4374 -0.2329
 7136TIP3    H137980   0.384   0.099   8.533  0.4251  0.8541  0.6701
 7136TIP3    H237981   0.288   0.181   8.449 -0.0054 -0.2433  0.0715
 7137TIP3   OH237982   0.784   1.785   7.537 -0.3217 -0.3676  0.0153
 7137TIP3    H137983   0.743   1.785   7.624  1.1912 -2.0852  0.8205
 7137TIP3    H237984   0.739   1.714   7.490 -0.3975 -0.1681 -0.2125
 7138TIP3   OH237985   3.445   5.600   2.670  0.4174 -0.9175  0.4933
 7138TIP3    H137986   3.387   5.671   2.641  1.8585 -0.2881 -0.9668
 7138TIP3    H237987   3.385   5.528   2.691 -0.8908 -0.4208 -1.3024
 7139TIP3   OH237988   1.572   3.035   8.270 -0.3282 -0.4875 -0.3217
 7139TIP3    H137989   1.653   3.004   8.231 -2.2554 -1.0894 -4.3938
 7139TIP3    H237990   1.578   3.131   8.267  0.8382 -0.4925  1.0318
 7140TIP3   OH237991   0.298   4.323   7.545 -0.8429  0.5828  0.3969
 7140TIP3    H137992   0.300   4.243   7.492  0.2220 -0.3630  1.7876
 7140TIP3    H237993   0.233   4.378   7.502 -2.6693 -1.5934  0.2081
 7141TIP3   OH237994   1.035   5.056   8.180 -0.2334  0.0149 -0.6686
 7141TIP3    H137995   1.080   5.127   8.135 -0.2882  0.3635 -0.1845
 7141TIP3    H237996   0.991   5.098   8.254 -0.7590 -0.4290 -0.7149
 7142TIP3   OH237997   2.250   2.866   2.084  0.0244 -0.1966  0.3269
 7142TIP3    H137998   2.159   2.892   2.071  0.5439  1.0556 -1.0700
 7142TIP3    H237999   2.244   2.782   2.129 -1.7693  0.8849  2.2978
 7143TIP3   OH238000   1.156   2.630   9.332 -0.2935 -0.2554  0.1749
 7143TIP3    H138001   1.071   2.672   9.328 -0.6435 -0.9742 -0.1195
 7143TIP3    H238002   1.170   2.595   9.244  0.5417  0.3106  0.0723
 7144TIP3   OH238003   1.631   5.756   1.251 -0.1080  0.0476 -0.1167
 7144TIP3    H138004   1.639   5.850   1.267 -0.0625  0.1347 -0.6406
 7144TIP3    H238005   1.605   5.720   1.336  0.0132  0.5130  0.1234
 7145TIP3   OH238006   0.994   1.984   7.501  0.0125 -0.2804  0.5909
 7145TIP3    H138007   0.918   1.925   7.499 -0.1867 -0.0547  1.2154
 7145TIP3    H238008   0.975   2.051   7.436  1.0440 -1.8501 -1.4566
 7146TIP3   OH238009   2.528   4.868   8.024  0.0774  0.2849  0.2382
 7146TIP3    H138010   2.566   4.910   8.102  0.4568  2.0989 -0.8610
 7146TIP3    H238011   2.572   4.910   7.951 -1.1224 -0.5453 -1.0013
 7147TIP3   OH238012   6.141   4.861   7.124  0.7751 -0.3788 -0.3966
 7147TIP3    H138013   6.057   4.867   7.171  0.7125 -1.4643 -0.3531
 7147TIP3    H238014   6.203   4.832   7.190  1.5775  1.9731 -0.0162
 7148TIP3   OH238015   1.644   1.718   1.456  0.0884 -0.2440 -0.3801
 7148TIP3    H138016   1.612   1.713   1.366 -0.5276 -0.1604 -0.1744
 7148TIP3    H238017   1.568   1.747   1.507 -0.1704 -2.3009  0.4853
 7149TIP3   OH238018   6.037   4.085   2.508  0.3742 -0.0898  0.4072
 7149TIP3    H138019   5.977   4.086   2.582  0.4552 -0.5373  0.4794
 7149TIP3    H238020   6.109   4.029   2.535  1.3677  1.3051  0.7340
 7150TIP3   OH238021   0.222   4.746   0.280 -0.4282 -0.0397 -0.8926
 7150TIP3    H138022   0.211   4.752   0.185 -2.8565 -1.3957 -0.7852
 7150TIP3    H238023   0.133   4.754   0.315  0.3487 -0.0817  1.2510
 7151TIP3   OH238024   4.469   1.200   0.893  0.1109 -0.2852 -0.1478
 7151TIP3    H138025   4.554   1.176   0.856 -0.5770 -2.0950 -0.6976
 7151TIP3    H238026   4.489   1.234   0.980  1.4050 -0.5563 -0.3164
 7152TIP3   OH238027   3.146   6.274   1.596 -0.2734  0.1002  0.2240
 7152TIP3    H138028   3.160   6.181   1.615 -1.0913 -0.5767 -2.0621
 7152TIP3    H238029   3.052   6.286   1.605 -0.0273  1.0904  1.8143
 7153TIP3   OH238030   3.670   4.875   0.660 -0.2758  0.3236 -0.1824
 7153TIP3    H138031   3.593   4.894   0.607 -1.5425 -0.0656  1.4467
 7153TIP3    H238032   3.636   4.863   0.749  1.8479  1.8501  0.9325
 7154TIP3   OH238033   5.359   0.745   2.308 -0.7164 -0.2893 -0.1925
 7154TIP3    H138034   5.327   0.824   2.352  0.6805 -0.4760  1.2411
 7154TIP3    H238035   5.309   0.674   2.348 -0.4381 -0.3282  0.0884
 7155TIP3   OH238036   4.128   0.237   1.314  0.0193 -0.4561  0.0007
 7155TIP3    H138037   4.218   0.266   1.328 -0.2200  0.0906  0.4148
 7155TIP3    H238038   4.111   0.176   1.385 -0.5657  0.8922  1.0562
 7156TIP3   OH238039   3.665   2.910   0.116  0.2659 -0.5970  0.1184
 7156TIP3    H138040   3.723   2.917   0.192  0.1563 -0.8815  0.2290
 7156TIP3    H238041   3.685   2.825   0.078 -0.5283 -0.9791  0.5319
 7157TIP3   OH238042   6.020   3.421   8.372  0.1583  0.4688  0.1408
 7157TIP3    H138043   6.078   3.413   8.447  0.7952 -1.8647 -0.5397
 7157TIP3    H238044   6.078   3.423   8.296 -0.5044  2.2497 -0.3590
 7158TIP3   OH238045   1.013   1.757   6.564  0.0535 -0.0794  0.5542
 7158TIP3    H138046   0.969   1.708   6.495  2.0328  0.6068 -1.2853
 7158TIP3    H238047   0.968   1.730   6.644 -0.8459 -2.6523 -0.7002
 7159TIP3   OH238048   4.814   3.435   1.146  0.1920 -0.1248  0.2835
 7159TIP3    H138049   4.807   3.475   1.059  1.1338  0.0595  0.2714
 7159TIP3    H238050   4.772   3.350   1.137 -2.8120  1.2064  0.5900
 7160TIP3   OH238051   0.648   3.336   7.150 -0.0617 -0.4498  0.0260
 7160TIP3    H138052   0.618   3.257   7.196  0.9939 -0.5866  0.5037
 7160TIP3    H238053   0.717   3.372   7.206  0.3288  0.1227 -0.8007
 7161TIP3   OH238054   4.789   1.548   1.901  0.0927 -0.3500  0.2915
 7161TIP3    H138055   4.841   1.512   1.972  0.4849  0.7046  0.5639
 7161TIP3    H238056   4.700   1.555   1.937 -0.1323 -1.5790  0.0283
 7162TIP3   OH238057   4.242   0.736   2.180 -0.1099 -0.3671  0.1034
 7162TIP3    H138058   4.215   0.660   2.232  0.4896 -0.2120  0.6573
 7162TIP3    H238059   4.335   0.746   2.199 -0.0134  0.0465 -0.5633
 7163TIP3   OH238060   3.412   6.112   8.351 -0.4060 -0.1982  0.1403
 7163TIP3    H138061   3.339   6.060   8.318 -0.1143  0.0303 -0.8855
 7163TIP3    H238062   3.384   6.139   8.439 -1.4894 -0.2242 -0.1873
 7164TIP3   OH238063   6.262   4.228   8.823  0.1435  0.1771 -0.1919
 7164TIP3    H138064   6.349   4.266   8.819 -0.7347  2.4648  0.6673
 7164TIP3    H238065   6.242   4.205   8.732  1.6033 -0.3804 -0.3994
 7165TIP3   OH238066   2.729   1.192   5.891  0.0841 -0.5468  0.2885
 7165TIP3    H138067   2.790   1.234   5.831  1.7013  0.1889  2.3152
 7165TIP3    H238068   2.646   1.237   5.877  0.9611  1.0490  0.0896
 7166TIP3   OH238069   5.270   1.056   2.736 -0.2018 -0.2979 -0.5161
 7166TIP3    H138070   5.297   1.145   2.712  1.7286 -0.7731 -0.2279
 7166TIP3    H238071   5.271   1.055   2.832 -1.4262 -0.3001 -0.4897
 7167TIP3   OH238072   3.265   3.031   9.032  0.2092 -0.0862 -0.0760
 7167TIP3    H138073   3.288   3.100   9.094  0.4005  0.1967 -0.4591
 7167TIP3    H238074   3.173   3.012   9.051 -0.1113  0.9009 -0.5622
 7168TIP3   OH238075   2.018   4.371   1.081 -0.4417 -0.3723 -0.4154
 7168TIP3    H138076   2.032   4.461   1.110  0.1771 -1.0902  1.6279
 7168TIP3    H238077   2.093   4.353   1.024  0.6500 -0.2834  0.9442
 7169TIP3   OH238078   0.446   5.715   8.200  0.0496  0.1537 -0.1502
 7169TIP3    H138079   0.446   5.619   8.201  0.6530  0.1372 -0.9124
 7169TIP3    H238080   0.531   5.739   8.238 -0.1489  0.3894  0.1498
 7170TIP3   OH238081   4.280   5.262   0.145 -0.1118  0.4630 -0.0327
 7170TIP3    H138082   4.194   5.233   0.176 -0.6430  1.7125 -0.2316
 7170TIP3    H238083   4.292   5.348   0.186  1.6828 -0.2639  1.0766
 7171TIP3   OH238084   4.156   2.414   0.887 -0.1279  0.1496 -0.0078
 7171TIP3    H138085   4.144   2.331   0.841  0.6031  1.0842 -1.9997
 7171TIP3    H238086   4.204   2.469   0.825  1.4392  1.3303  2.0930
 7172TIP3   OH238087   1.034   3.673   9.248 -0.4561  0.3382  0.0872
 7172TIP3    H138088   1.120   3.641   9.275  0.2691  1.5084 -0.7185
 7172TIP3    H238089   0.979   3.664   9.326 -0.1013 -2.0331  0.1182
 7173TIP3   OH238090   6.269   5.783   0.412  0.0862 -0.2293 -0.1572
 7173TIP3    H138091   6.195   5.782   0.351  0.2691  0.1812 -0.3927
 7173TIP3    H238092   6.329   5.849   0.375  0.9484 -1.1422 -0.4276
 7174TIP3   OH238093   4.847   1.288   9.362  0.0578 -0.6382 -0.4279
 7174TIP3    H138094   4.852   1.353   9.292  0.3095 -2.6941 -2.4316
 7174TIP3    H238095   4.767   1.240   9.344  0.9562 -2.2430 -0.2705
 7175TIP3   OH238096   5.451   1.320   1.800  0.2918 -0.1884  0.0231
 7175TIP3    H138097   5.415   1.287   1.718 -0.3158 -2.0426  0.9821
 7175TIP3    H238098   5.469   1.241   1.851 -0.2865  0.9467  2.0585
 7176TIP3   OH238099   5.602   1.471   1.481  0.2416 -0.2057 -0.4712
 7176TIP3    H138100   5.619   1.562   1.457  0.5234 -0.1345 -0.0025
 7176TIP3    H238101   5.688   1.429   1.479  0.0900 -0.5059 -0.8528
 7177TIP3   OH238102   1.922   1.673   3.023  0.2249 -0.1223  0.2378
 7177TIP3    H138103   1.984   1.608   3.055  0.1672 -1.8545 -2.7815
 7177TIP3    H238104   1.941   1.752   3.074  3.0430 -1.3476  1.2682
 7178TIP3   OH238105   0.927   4.062   1.600 -0.4578  0.1061 -0.1961
 7178TIP3    H138106   0.944   3.998   1.532  2.3045 -1.3406  1.6832
 7178TIP3    H238107   0.860   4.021   1.655  0.5113 -0.7595  0.3816
 7179TIP3   OH238108   3.025   3.684   1.327  0.1289 -0.3875 -0.4150
 7179TIP3    H138109   3.000   3.712   1.415 -0.0853 -0.9110 -0.3062
 7179TIP3    H238110   3.071   3.601   1.340  0.1695 -0.4263 -0.7879
 7180TIP3   OH238111   4.331   2.554   2.664  0.1503 -0.4904  0.3860
 7180TIP3    H138112   4.263   2.619   2.679  0.5533  0.2504 -0.8360
 7180TIP3    H238113   4.413   2.604   2.669  0.4688 -0.9135 -0.4256
 7181TIP3   OH238114   4.029   1.779   0.767  0.8504 -0.4998 -0.4122
 7181TIP3    H138115   4.016   1.703   0.711  1.7001  0.7504 -2.4252
 7181TIP3    H238116   4.037   1.744   0.855 -0.0428 -2.6017 -1.1157
 7182TIP3   OH238117   4.539   2.394   8.507 -0.1381 -0.6750 -0.1152
 7182TIP3    H138118   4.470   2.392   8.573 -1.5551  0.9649 -1.4595
 7182TIP3    H238119   4.494   2.413   8.425  2.0507  3.5290 -0.6495
 7183TIP3   OH238120   6.272   0.488   1.955 -0.1207  0.3052 -0.0316
 7183TIP3    H138121   6.353   0.536   1.970  0.6968 -1.0854  0.2463
 7183TIP3    H238122   6.237   0.472   2.043 -0.8710  1.1611 -0.1630
 7184TIP3   OH238123   3.893   3.217   7.466  0.3466  0.1012 -0.0434
 7184TIP3    H138124   3.848   3.161   7.529 -0.3626  0.3178 -0.3490
 7184TIP3    H238125   3.986   3.198   7.479  0.1510 -0.6112  0.3524
 7185TIP3   OH238126   0.759   1.013   7.306 -0.4407  0.1761 -0.0255
 7185TIP3    H138127   0.702   1.000   7.382 -1.9198 -1.2046 -1.3010
 7185TIP3    H238128   0.785   0.924   7.281 -0.6287  0.5422 -1.5925
 7186TIP3   OH238129   1.367   3.634   0.843  0.1412  0.0406 -0.1969
 7186TIP3    H138130   1.422   3.574   0.894  0.3605 -0.0935 -0.5869
 7186TIP3    H238131   1.377   3.604   0.752  0.4368  0.8109 -0.4273
 7187TIP3   OH238132   5.379   1.312   7.953 -0.1919 -0.3158  0.4970
 7187TIP3    H138133   5.338   1.381   8.006 -0.7953 -0.6471  0.4664
 7187TIP3    H238134   5.455   1.285   8.004  0.8797  1.3394 -0.1387
 7188TIP3   OH238135   1.639   4.780   8.330 -0.0492 -0.6616 -0.4954
 7188TIP3    H138136   1.598   4.709   8.381 -0.4630 -0.6918 -0.8646
 7188TIP3    H238137   1.671   4.841   8.396  0.4401 -1.2577 -0.1630
 7189TIP3   OH238138   4.743   5.773   1.213 -0.7877  0.1460 -0.1923
 7189TIP3    H138139   4.789   5.722   1.280 -0.4646 -0.1188 -0.6120
 7189TIP3    H238140   4.813   5.812   1.160 -1.0202  1.1715  0.2183
 7190TIP3   OH238141   4.554   5.559   8.070  0.5890 -0.1487  0.5557
 7190TIP3    H138142   4.482   5.534   8.127  1.9865 -0.4808  2.2506
 7190TIP3    H238143   4.616   5.486   8.076  0.2482 -0.8235 -2.4502
 7191TIP3   OH238144   4.693   2.300   1.208  0.0626  0.2487  0.4775
 7191TIP3    H138145   4.603   2.269   1.199  0.5475 -0.7180 -1.3926
 7191TIP3    H238146   4.684   2.393   1.230 -1.4279  0.5555 -1.2034
 7192TIP3   OH238147   1.761   4.006   8.254 -0.1680  0.1850 -0.3429
 7192TIP3    H138148   1.707   4.057   8.314  1.1980  2.4224 -0.8862
 7192TIP3    H238149   1.807   4.072   8.201  0.8686 -1.6521 -1.8636
 7193TIP3   OH238150   3.168   1.691   8.815  0.0199 -0.3215 -0.2856
 7193TIP3    H138151   3.086   1.666   8.771  1.3577 -0.0422 -3.2183
 7193TIP3    H238152   3.197   1.769   8.767  2.2154 -0.6786  0.3610
 7194TIP3   OH238153   4.594   4.349   0.091  0.0492  0.7934 -0.3928
 7194TIP3    H138154   4.581   4.438   0.059 -1.7049  0.3605 -1.0114
 7194TIP3    H238155   4.536   4.296   0.037  0.0777 -0.5483  0.8443
 7195TIP3   OH238156   4.518   1.476   7.265 -0.0425 -0.0342 -0.1356
 7195TIP3    H138157   4.527   1.486   7.360 -0.8728  0.9156 -0.1455
 7195TIP3    H238158   4.580   1.406   7.243  0.3040 -0.1381  1.0714
 7196TIP3   OH238159   6.049   2.582   0.013  0.0794 -0.3700 -0.2238
 7196TIP3    H138160   6.064   2.507   0.070  0.3274 -0.7419 -0.7752
 7196TIP3    H238161   6.038   2.656   0.073 -0.8447 -0.9572  0.3455
 7197TIP3   OH238162   4.197   3.364   7.951 -0.3408  0.4217 -0.2633
 7197TIP3    H138163   4.190   3.386   7.858  0.2114  0.5112 -0.2857
 7197TIP3    H238164   4.107   3.372   7.984 -0.5646  0.2402 -0.8203
 7198TIP3   OH238165   1.972   0.198   7.480 -0.3957 -0.3164 -0.0228
 7198TIP3    H138166   1.932   0.112   7.489 -0.9296 -0.2082 -1.2270
 7198TIP3    H238167   2.020   0.195   7.397  0.5447  0.1814  0.4770
 7199TIP3   OH238168   4.884   5.739   1.719  0.2953  0.2591  0.2333
 7199TIP3    H138169   4.812   5.737   1.656  0.9921  2.3114 -0.7242
 7199TIP3    H238170   4.860   5.808   1.781  0.6646 -0.1929  0.8918
 7200TIP3   OH238171   5.645   0.234   1.801 -0.0353  0.0926 -0.4805
 7200TIP3    H138172   5.635   0.274   1.714 -1.4094  1.0995  0.0974
 7200TIP3    H238173   5.739   0.226   1.813  0.1803 -1.1631 -2.5257
 7201TIP3   OH238174   5.386   4.330   8.429 -0.6536  0.0358 -0.5602
 7201TIP3    H138175   5.337   4.294   8.355 -1.5837  2.9754 -1.5345
 7201TIP3    H238176   5.459   4.377   8.389  0.5756 -0.7771  0.6331
 7202TIP3   OH238177   2.657   4.586   7.716  0.5338 -0.4208  0.1608
 7202TIP3    H138178   2.674   4.556   7.627  2.0838  2.9272 -0.8398
 7202TIP3    H238179   2.594   4.657   7.706  0.6604 -0.0451  1.7544
 7203TIP3   OH238180   0.625   2.816   1.261 -0.1982  0.2765  0.2620
 7203TIP3    H138181   0.613   2.722   1.249 -0.3308  0.2580  0.5138
 7203TIP3    H238182   0.642   2.850   1.174  1.7744 -0.2477  0.4034
 7204TIP3   OH238183   1.223   3.293   0.762 -0.3311  0.1143  0.0723
 7204TIP3    H138184   1.281   3.341   0.703 -0.5407 -1.0425 -1.1256
 7204TIP3    H238185   1.246   3.325   0.849  2.2090 -0.3682 -0.3274
 7205TIP3   OH238186   5.236   2.043   0.141 -0.2960 -0.0369  0.0106
 7205TIP3    H138187   5.252   1.962   0.092 -0.2702  0.9135 -1.6076
 7205TIP3    H238188   5.260   2.113   0.080 -1.6355  1.2229  0.8738
 7206TIP3   OH238189   1.065   0.027   3.005 -0.0018  0.5721 -0.4008
 7206TIP3    H138190   1.080   0.028   3.100  1.0148  0.5723 -0.5564
 7206TIP3    H238191   0.979   0.068   2.995  1.1876  3.5263  0.3263
 7207TIP3   OH238192   1.045   2.338   2.118  0.3455  0.1261 -0.6527
 7207TIP3    H138193   0.984   2.282   2.166  0.6537  0.1652 -0.2130
 7207TIP3    H238194   1.117   2.279   2.093 -0.4906 -0.2235 -2.3265
 7208TIP3   OH238195   0.376   3.564   0.283  0.2415 -0.5917  0.3977
 7208TIP3    H138196   0.400   3.656   0.293  0.9803 -0.8928  1.5502
 7208TIP3    H238197   0.372   3.550   0.188 -0.1878  0.6942  0.2117
 7209TIP3   OH238198   3.860   2.148   8.313  0.1869 -0.4815 -0.3562
 7209TIP3    H138199   3.821   2.072   8.271  0.1471 -0.6106 -0.0879
 7209TIP3    H238200   3.786   2.193   8.355  0.2095 -0.2932 -0.5152
 7210TIP3   OH238201   2.848   4.356   0.222 -0.3650 -0.0947  0.3091
 7210TIP3    H138202   2.845   4.289   0.291  0.7781 -2.5266 -1.8462
 7210TIP3    H238203   2.775   4.335   0.164  1.8381 -1.6312 -2.1249
 7211TIP3   OH238204   4.460   3.427   7.956  0.2489  0.5702  0.4359
 7211TIP3    H138205   4.373   3.388   7.959  1.0687 -1.4424 -0.0229
 7211TIP3    H238206   4.456   3.491   7.886 -0.4345 -0.6916 -0.7267
 7212TIP3   OH238207   4.020   3.106   1.096  0.2283  0.9823  0.4844
 7212TIP3    H138208   3.995   3.196   1.073 -0.9006  0.9647  1.5638
 7212TIP3    H238209   3.941   3.069   1.136  1.1192 -0.0459  1.3266
 7213TIP3   OH238210   0.351   6.071   0.154  0.0814 -0.3258  0.4866
 7213TIP3    H138211   0.303   6.136   0.103  1.7877  1.5346  1.0767
 7213TIP3    H238212   0.432   6.057   0.105  0.0182 -1.5235  0.7095
 7214TIP3   OH238213   1.186   1.291   0.630  0.4676  0.0368 -0.0447
 7214TIP3    H138214   1.121   1.335   0.684 -0.5118 -1.3628 -0.0291
 7214TIP3    H238215   1.242   1.361   0.597 -0.2603  1.1350  0.9925
 7215TIP3   OH238216   4.367   4.827   3.226  0.0524 -0.0896 -0.8200
 7215TIP3    H138217   4.435   4.843   3.291  0.2127  0.2790 -1.0773
 7215TIP3    H238218   4.412   4.779   3.156  0.4657  1.6375 -1.7777
 7216TIP3   OH238219   4.748   3.201   7.825  0.0213 -0.3386 -0.2677
 7216TIP3    H138220   4.833   3.178   7.863  1.2930  0.0285 -2.6332
 7216TIP3    H238221   4.741   3.296   7.836 -0.5469 -0.4857  0.7392
 7217TIP3   OH238222   0.746   3.805   9.229 -0.3038 -0.5600  0.0180
 7217TIP3    H138223   0.832   3.764   9.235 -0.6731 -1.4858 -0.7811
 7217TIP3    H238224   0.691   3.754   9.289  0.2193  1.5728  2.5107
 7218TIP3   OH238225   5.506   2.768   1.004  0.2566  0.3285  0.0853
 7218TIP3    H138226   5.506   2.754   0.909  2.3703 -2.1304  0.3165
 7218TIP3    H238227   5.415   2.784   1.026 -0.1739  1.8497 -2.4462
 7219TIP3   OH238228   0.299   0.602   7.494 -0.2736 -0.2272  0.1899
 7219TIP3    H138229   0.229   0.644   7.444 -0.7142  0.1796  1.1183
 7219TIP3    H238230   0.317   0.521   7.447  1.1720  1.3092 -2.1441
 7220TIP3   OH238231   2.063   3.074   7.581 -0.3790  0.0552  0.0687
 7220TIP3    H138232   2.144   3.032   7.612 -0.5834 -0.8730 -0.5869
 7220TIP3    H238233   2.042   3.027   7.500 -1.7629  0.0599  0.4094
 7221TIP3   OH238234   3.394   4.844   9.080 -0.0600  1.2824  0.2763
 7221TIP3    H138235   3.422   4.792   9.004  0.5367  0.6092  0.9348
 7221TIP3    H238236   3.308   4.808   9.103  1.4532 -1.4068  2.3861
 7222TIP3   OH238237   2.580   0.611   0.533  0.6767  0.1333 -0.1077
 7222TIP3    H138238   2.634   0.572   0.602 -1.3971 -0.1949  1.4186
 7222TIP3    H238239   2.530   0.679   0.577 -0.8371 -0.1919 -1.2265
 7223TIP3   OH238240   4.200   3.272   7.692 -1.2344  0.1764 -0.4164
 7223TIP3    H138241   4.190   3.220   7.612 -2.1096 -0.3418  0.0148
 7223TIP3    H238242   4.292   3.298   7.692 -0.5737 -1.9497 -0.3064
 7224TIP3   OH238243   1.042   3.702   1.767  0.0796  0.6297  0.3650
 7224TIP3    H138244   1.001   3.698   1.680 -2.1784 -1.4055  1.4139
 7224TIP3    H238245   1.008   3.782   1.806 -0.8415  0.3025  0.2511
 7225TIP3   OH238246   1.852   4.456   9.268  0.1284 -0.0780  0.2441
 7225TIP3    H138247   1.767   4.491   9.292 -0.0357  0.5543 -1.2044
 7225TIP3    H238248   1.915   4.509   9.318 -0.3045 -0.7289  1.5271
 7226TIP3   OH238249   2.288   4.833   0.042  0.5524 -0.8044 -0.4731
 7226TIP3    H138250   2.219   4.842  -0.024  1.1831  1.5913 -0.8974
 7226TIP3    H238251   2.363   4.799  -0.007  0.6852 -0.1128 -0.7552
 7227TIP3   OH238252   0.575   5.071   6.913  0.0800  0.5139 -0.2029
 7227TIP3    H138253   0.593   5.113   6.997 -1.6040  0.2604  0.3244
 7227TIP3    H238254   0.657   5.079   6.864  2.2524 -2.0867  2.5952
 7228TIP3   OH238255   6.294   1.336   9.321  0.1713  0.1523  0.3128
 7228TIP3    H138256   6.280   1.416   9.371  1.0713 -0.3152  1.3554
 7228TIP3    H238257   6.389   1.327   9.316  0.0983 -0.1828 -0.9235
 7229TIP3   OH238258   4.437   6.186   1.723  0.3519 -0.7013  0.3477
 7229TIP3    H138259   4.389   6.161   1.645  0.6647  0.2179 -0.1501
 7229TIP3    H238260   4.528   6.163   1.704  0.3522 -0.9951  0.6751
 7230TIP3   OH238261   0.336   2.118   1.544 -0.0146  0.2141 -0.1964
 7230TIP3    H138262   0.307   2.139   1.633  0.2524 -0.0430 -0.0471
 7230TIP3    H238263   0.298   2.032   1.526  1.6938 -0.7320  0.4946
 7231TIP3   OH238264   4.750   3.857   8.969  0.3206  1.3251 -0.0416
 7231TIP3    H138265   4.735   3.892   9.057  0.8053 -0.4202  0.7698
 7231TIP3    H238266   4.762   3.935   8.914 -1.5045  2.5019  1.1223
 7232TIP3   OH238267   2.229   4.803   0.907 -0.1745 -1.2375  0.0613
 7232TIP3    H138268   2.192   4.842   0.828 -2.2981 -1.2210  0.9844
 7232TIP3    H238269   2.250   4.713   0.882 -0.1376 -1.0209 -0.7115
 7233TIP3   OH238270   5.970   1.039   8.810 -0.4364  0.1800 -0.0896
 7233TIP3    H138271   6.065   1.043   8.806 -0.3861  0.3161  0.9051
 7233TIP3    H238272   5.941   1.129   8.798 -0.4106  0.2192  0.1387
 7234TIP3   OH238273   5.583   4.408   7.387 -0.3045  0.0529  0.1403
 7234TIP3    H138274   5.673   4.392   7.415 -0.9240 -0.3020  2.0951
 7234TIP3    H238275   5.588   4.485   7.330  1.6711 -2.0336 -2.7412
 7235TIP3   OH238276   2.370   3.652   7.564  0.1411  0.4263 -0.2881
 7235TIP3    H138277   2.449   3.651   7.619  0.5585  1.8858 -0.8212
 7235TIP3    H238278   2.381   3.728   7.507 -2.4127  1.6958  0.7440
 7236TIP3   OH238279   3.835   0.813   0.033  0.0441  0.0876  0.4861
 7236TIP3    H138280   3.890   0.890   0.024 -0.1155  0.1524  0.0378
 7236TIP3    H238281   3.836   0.772  -0.054 -2.8291  1.5839 -0.3756
 7237TIP3   OH238282   5.974   4.031   8.963  0.1101  0.0441 -0.3547
 7237TIP3    H138283   6.008   3.943   8.972 -0.4383  0.0157  2.0874
 7237TIP3    H238284   5.889   4.020   8.921 -0.1451 -0.6654  0.3269
 7238TIP3   OH238285   5.249   0.374   7.017 -0.4929 -0.2700 -0.9608
 7238TIP3    H138286   5.327   0.353   6.965  1.9348 -0.2210  2.3128
 7238TIP3    H238287   5.207   0.290   7.032  1.1540 -0.9130  0.3418
 7239TIP3   OH238288   2.720   2.075   7.432 -0.4851 -0.1279 -0.1552
 7239TIP3    H138289   2.668   2.155   7.430 -0.6096 -0.2174 -0.5149
 7239TIP3    H238290   2.772   2.077   7.352 -1.8651 -1.2985 -1.1576
 7240TIP3   OH238291   6.395   4.293   7.067 -0.1957  0.4271 -0.1586
 7240TIP3    H138292   6.336   4.319   7.137  0.1476 -0.7708  0.6009
 7240TIP3    H238293   6.405   4.372   7.013 -1.1341  1.1156  0.6521
 7241TIP3   OH238294   4.519   0.923   0.676 -0.1294 -0.2333 -0.0423
 7241TIP3    H138295   4.500   0.865   0.602  0.6772 -1.0435  0.3661
 7241TIP3    H238296   4.439   0.975   0.686 -0.0359  0.3365 -1.8630
 7242TIP3   OH238297   3.970   3.199   8.060  0.6369  0.0584  0.0424
 7242TIP3    H138298   3.899   3.180   8.122  0.2895  1.0338 -0.0442
 7242TIP3    H238299   3.935   3.172   7.975  0.7840 -0.4660  0.1445
 7243TIP3   OH238300   4.304   5.537   1.907 -0.4447  0.0637  0.1820
 7243TIP3    H138301   4.333   5.507   1.993 -1.2313  3.0961  1.6329
 7243TIP3    H238302   4.382   5.529   1.852  0.4421 -0.7931  1.5093
 7244TIP3   OH238303   5.673   4.802   0.745  0.0162  0.1909 -0.1339
 7244TIP3    H138304   5.727   4.878   0.769  0.9396  0.0503 -1.5919
 7244TIP3    H238305   5.618   4.834   0.673 -0.4431 -0.2087  0.0344
 7245TIP3   OH238306   0.473   0.565   1.387  0.0357  0.4197 -0.5744
 7245TIP3    H138307   0.567   0.570   1.367 -0.0024 -1.1883 -1.2906
 7245TIP3    H238308   0.469   0.537   1.478  0.2354  1.4435 -0.2409
 7246TIP3   OH238309   5.936   4.753   0.920  0.2105 -0.0942  0.0189
 7246TIP3    H138310   5.867   4.704   0.875  0.7572 -0.7405 -0.1367
 7246TIP3    H238311   5.935   4.719   1.010  0.2778 -0.0560  0.0346
 7247TIP3   OH238312   0.659   5.949   8.548  0.3585 -0.4686 -0.5395
 7247TIP3    H138313   0.719   5.876   8.567  0.6068  0.1592  1.3298
 7247TIP3    H238314   0.716   6.022   8.524  0.2691 -0.2777 -0.1858
 7248TIP3   OH238315   5.553   5.985   7.390 -1.0410 -0.3603  0.3801
 7248TIP3    H138316   5.466   6.018   7.413 -0.2376  0.8469  1.8524
 7248TIP3    H238317   5.540   5.938   7.308 -3.3571 -1.4836  1.3001
 7249TIP3   OH238318   1.789   2.403   8.410 -0.3729  0.0754  0.2433
 7249TIP3    H138319   1.756   2.492   8.423 -0.3703 -0.1023  1.5734
 7249TIP3    H238320   1.724   2.363   8.352 -0.4457  0.8895 -0.2599
 7250TIP3   OH238321   0.564   6.387   7.869  0.6041 -0.0718 -0.2190
 7250TIP3    H138322   0.649   6.345   7.869 -0.3612 -2.2217  1.6502
 7250TIP3    H238323   0.575   6.465   7.924  1.0605 -1.1031  1.1875
 7251TIP3   OH238324   4.487   2.413   7.171 -0.2077 -0.7133  0.4578
 7251TIP3    H138325   4.468   2.356   7.246 -1.1971 -0.7092  0.2162
 7251TIP3    H238326   4.466   2.501   7.202  0.5400 -0.5632  0.5610
 7252TIP3   OH238327   3.442   2.413   0.658 -0.1782 -0.0641  0.8044
 7252TIP3    H138328   3.521   2.462   0.634  0.1323 -1.6072 -1.6806
 7252TIP3    H238329   3.470   2.359   0.732  0.0880  1.7702  2.1316
 7253TIP3   OH238330   4.231   5.707   8.004 -0.0600  0.0958  0.4071
 7253TIP3    H138331   4.220   5.660   8.087 -0.3411  2.5626  1.8730
 7253TIP3    H238332   4.321   5.689   7.978 -0.6675 -2.6425 -0.0898
 7254TIP3   OH238333   2.156   3.795   7.829  0.3409 -0.3789  0.3762
 7254TIP3    H138334   2.141   3.809   7.736  0.7249  0.3573  0.4235
 7254TIP3    H238335   2.177   3.881   7.864 -0.3490 -0.5482  1.2510
 7255TIP3   OH238336   0.003   2.382   7.449  0.0397 -0.1068 -0.9866
 7255TIP3    H138337  -0.061   2.453   7.438  0.6089  0.0801 -3.6944
 7255TIP3    H238338   0.088   2.426   7.444  0.4002 -0.9216 -2.6916
 7256TIP3   OH238339   3.288   3.803   8.418  0.2162 -0.4826  0.4666
 7256TIP3    H138340   3.223   3.842   8.477  0.2735 -0.2823  0.4005
 7256TIP3    H238341   3.281   3.855   8.338  0.9630  0.0163  0.7094
 7257TIP3   OH238342   1.865   1.060   9.204 -0.1542  0.0409  0.1290
 7257TIP3    H138343   1.808   1.016   9.267  0.6497  1.2200  1.7503
 7257TIP3    H238344   1.895   1.139   9.250  2.5635 -0.3773 -0.7414
 7258TIP3   OH238345   4.197   5.105   0.975 -0.6333  0.1047  0.3910
 7258TIP3    H138346   4.257   5.142   0.910 -0.9380  0.6872  0.4357
 7258TIP3    H238347   4.110   5.123   0.940 -0.8089  0.8707  1.2058
 7259TIP3   OH238348   5.815   5.574   8.288  0.2426  0.2801 -0.3988
 7259TIP3    H138349   5.872   5.563   8.365 -0.0799  1.2226 -0.0025
 7259TIP3    H238350   5.760   5.649   8.311  1.0921  1.4953 -2.1314
 7260TIP3   OH238351   0.800   4.387   8.383  0.5918 -0.2545  0.0002
 7260TIP3    H138352   0.804   4.360   8.475 -1.6358  2.8202  1.1991
 7260TIP3    H238353   0.817   4.481   8.385 -2.9841  0.6573 -2.1444
 7261TIP3   OH238354   5.451   5.000   8.946 -0.2821 -0.4686 -0.4211
 7261TIP3    H138355   5.431   5.089   8.972 -1.7546 -1.3259  1.5609
 7261TIP3    H238356   5.379   4.974   8.888 -0.1282 -0.5406 -0.5827
 7262TIP3   OH238357   2.982   2.371   0.604  0.0105  0.1367 -0.1429
 7262TIP3    H138358   2.971   2.344   0.513  1.4449  0.6771 -0.4955
 7262TIP3    H238359   2.892   2.387   0.635 -0.5444 -0.7575 -1.2237
 7263TIP3   OH238360   5.550   3.848   7.109 -0.1435 -0.4238  0.2608
 7263TIP3    H138361   5.577   3.939   7.103 -0.8063 -0.3213 -2.0103
 7263TIP3    H238362   5.594   3.815   7.187  1.3290  1.4137  0.2659
 7264TIP3   OH238363   2.819   0.542   1.167 -0.1299 -0.2699  0.2367
 7264TIP3    H138364   2.749   0.599   1.199  0.0846  0.4140 -0.5110
 7264TIP3    H238365   2.816   0.549   1.072  0.8531 -0.3596  0.1824
 7265TIP3   OH238366   0.139   1.095   6.451 -0.0119  0.5631  0.9643
 7265TIP3    H138367   0.205   1.104   6.382 -1.4966 -0.5160 -0.6892
 7265TIP3    H238368   0.114   1.185   6.472  0.4156  0.9127  0.0371
 7266TIP3   OH238369   1.706   4.900   1.236  0.1011  0.0210 -0.0435
 7266TIP3    H138370   1.725   4.948   1.317 -0.7960  0.0088  0.1841
 7266TIP3    H238371   1.626   4.851   1.256 -0.2798  0.2323 -1.0335
 7267TIP3   OH238372   1.338   0.964   7.035  0.4982  0.4068 -0.3619
 7267TIP3    H138373   1.288   0.966   7.117  2.6266 -0.8099  1.0694
 7267TIP3    H238374   1.378   1.051   7.029 -0.6830  0.9277 -0.8048
 7268TIP3   OH238375   5.509   0.681   6.299 -0.0850  0.1139  0.4048
 7268TIP3    H138376   5.596   0.698   6.333 -0.5335 -0.5325  1.9855
 7268TIP3    H238377   5.516   0.596   6.255  0.0574 -0.0061  0.6587
 7269TIP3   OH238378   1.022   5.827   1.659 -0.0171 -0.1184  0.3316
 7269TIP3    H138379   0.959   5.813   1.589 -0.1263 -0.1748  0.4401
 7269TIP3    H238380   1.042   5.738   1.691  0.5999 -0.1482 -0.1247
 7270TIP3   OH238381   3.395   5.551   8.827 -0.1800 -0.1272  0.5676
 7270TIP3    H138382   3.349   5.620   8.779 -1.1255  0.6465  2.5118
 7270TIP3    H238383   3.398   5.477   8.765 -0.9215  0.9712 -0.8373
 7271TIP3   OH238384   0.861   3.392   8.293  0.0373 -0.6238 -0.8496
 7271TIP3    H138385   0.806   3.464   8.324  0.1863 -1.2916  1.1297
 7271TIP3    H238386   0.867   3.405   8.198 -1.2250  1.0468 -0.7471
 7272TIP3   OH238387   1.674   3.582   1.495  0.1307  0.1122  0.1041
 7272TIP3    H138388   1.694   3.672   1.469  0.6449 -0.1655 -0.4934
 7272TIP3    H238389   1.612   3.551   1.428 -0.3836  0.1593  0.5511
 7273TIP3   OH238390   1.154   2.297   8.396 -0.0855  0.1531 -0.2418
 7273TIP3    H138391   1.221   2.316   8.461 -0.6765  1.1981  0.0663
 7273TIP3    H238392   1.201   2.300   8.312  0.3482  0.3845  0.0064
 7274TIP3   OH238393   5.384   5.843   8.134 -0.1060 -0.3302 -0.1744
 7274TIP3    H138394   5.432   5.846   8.051 -0.9034 -0.9155 -0.6687
 7274TIP3    H238395   5.399   5.754   8.167  0.2892 -0.0697  0.3730
 7275TIP3   OH238396   2.291   0.034   2.085  0.0368 -0.5014  0.0624
 7275TIP3    H138397   2.222   0.099   2.070  1.0801  0.5543 -0.3803
 7275TIP3    H238398   2.323   0.012   1.997  0.0640 -1.1940  0.2438
 7276TIP3   OH238399   2.924   3.299   8.451 -0.1233 -0.0625 -0.0322
 7276TIP3    H138400   2.949   3.372   8.508  0.2112  0.0013 -0.2615
 7276TIP3    H238401   2.848   3.260   8.495  0.8531 -0.7667  1.0965
 7277TIP3   OH238402   4.686   6.073   1.977 -0.5984  0.0565 -0.3193
 7277TIP3    H138403   4.636   6.047   2.054 -2.9267  0.1828 -1.6856
 7277TIP3    H238404   4.690   6.169   1.983 -0.3905  0.0354 -0.1253
 7278TIP3   OH238405   5.207   1.471   0.937  0.5765 -0.1173  0.3794
 7278TIP3    H138406   5.117   1.485   0.963  0.6204  3.1679 -0.8620
 7278TIP3    H238407   5.256   1.543   0.975  2.1415 -0.1222 -1.4147
 7279TIP3   OH238408   4.323   3.814   7.533  0.5070 -0.4252 -0.0070
 7279TIP3    H138409   4.258   3.834   7.600  0.0352 -1.1260 -0.2375
 7279TIP3    H238410   4.396   3.872   7.552  0.5228 -0.8518  1.3301
 7280TIP3   OH238411   2.780   3.737   8.691 -0.1448 -0.2566  0.2546
 7280TIP3    H138412   2.694   3.698   8.682 -0.2622 -0.2644  1.3043
 7280TIP3    H238413   2.765   3.831   8.682 -0.4769 -0.1458  1.6682
 7281TIP3   OH238414   5.180   5.383   0.405  0.2033 -0.6289 -0.3806
 7281TIP3    H138415   5.264   5.420   0.431 -0.1524  0.8091 -1.1841
 7281TIP3    H238416   5.119   5.411   0.474  0.0684 -0.3152 -0.6277
 7282TIP3   OH238417   2.530   3.813   2.067 -0.2830  0.0946 -0.4180
 7282TIP3    H138418   2.593   3.748   2.098 -0.8104  0.0066  0.4853
 7282TIP3    H238419   2.482   3.769   1.997  0.7609  0.2210 -1.2446
 7283TIP3   OH238420   4.542   2.615   7.686 -0.4817  0.1938  0.4592
 7283TIP3    H138421   4.621   2.584   7.642 -1.9482 -0.7407 -1.6642
 7283TIP3    H238422   4.498   2.535   7.716 -0.9880  0.6521  0.9640
 7284TIP3   OH238423   1.101   5.180   8.444  0.1971 -0.0743 -0.2556
 7284TIP3    H138424   1.179   5.166   8.390 -1.0434 -1.9849 -1.6905
 7284TIP3    H238425   1.133   5.171   8.534  1.7057 -0.4405 -0.7919
 7285TIP3   OH238426   4.256   1.689   7.701  0.4913  0.0261 -0.2958
 7285TIP3    H138427   4.230   1.711   7.790 -2.4743  0.1257 -1.0683
 7285TIP3    H238428   4.282   1.597   7.706 -1.2238 -0.4719  0.4600
 7286TIP3   OH238429   1.097   3.594   2.325 -0.4392 -0.0881 -0.1526
 7286TIP3    H138430   1.163   3.527   2.307  1.2444  1.6604 -0.8250
 7286TIP3    H238431   1.104   3.609   2.420  2.0718  1.8772 -0.5394
 7287TIP3   OH238432   1.697   1.054   8.908 -0.6714 -0.7607 -0.6848
 7287TIP3    H138433   1.657   1.129   8.952  2.1979  0.6562 -0.2188
 7287TIP3    H238434   1.627   1.017   8.854 -2.9820  0.4586  1.2687
 7288TIP3   OH238435   1.270   3.216   1.427 -0.2130  0.7962  0.1802
 7288TIP3    H138436   1.362   3.208   1.451 -0.7847 -0.5052  2.1687
 7288TIP3    H238437   1.252   3.140   1.372 -0.6465 -0.3430  1.8336
 7289TIP3   OH238438   5.038   0.710   9.279 -0.0935  0.3241 -0.6959
 7289TIP3    H138439   4.991   0.792   9.268  2.3234  1.7254 -1.1355
 7289TIP3    H238440   5.042   0.698   9.374 -1.7266 -0.1238 -0.6484
 7290TIP3   OH238441   4.302   0.669   9.176  0.1576  0.0275  0.5211
 7290TIP3    H138442   4.282   0.584   9.138 -0.5895 -0.9473  2.9126
 7290TIP3    H238443   4.362   0.650   9.248  0.9128  1.6771  0.3647
 7291TIP3   OH238444   4.170   4.038   1.210 -0.0937 -0.1410  0.3452
 7291TIP3    H138445   4.230   4.112   1.197 -1.1452  0.5344 -0.8423
 7291TIP3    H238446   4.212   3.965   1.165  1.0155 -0.3355  1.6342
 7292TIP3   OH238447   3.851   1.905   8.927 -1.0607  0.2691  0.6631
 7292TIP3    H138448   3.898   1.861   8.857  0.1778 -0.8646  2.1204
 7292TIP3    H238449   3.836   1.993   8.895  0.4713  0.1184 -0.5795
 7293TIP3   OH238450   0.198   6.318   1.888 -0.0429  0.4635 -0.0891
 7293TIP3    H138451   0.236   6.398   1.851  0.4321  0.9585  1.3950
 7293TIP3    H238452   0.270   6.255   1.886 -0.3438  0.1393 -1.0237
 7294TIP3   OH238453   2.801   0.322   6.818 -0.2108 -0.5991  0.2033
 7294TIP3    H138454   2.809   0.381   6.893  0.9309 -0.7506  0.2141
 7294TIP3    H238455   2.740   0.367   6.760 -1.3798 -0.6306  1.3517
 7295TIP3   OH238456   5.825   2.817   1.769  0.0313 -0.2578  0.1122
 7295TIP3    H138457   5.739   2.843   1.804 -0.0081  2.4161 -1.7382
 7295TIP3    H238458   5.807   2.791   1.679  1.2628  1.5293 -0.7068
 7296TIP3   OH238459   0.354   6.414   6.389  0.0720  0.2739  0.0855
 7296TIP3    H138460   0.436   6.376   6.358 -0.7236 -0.5798 -1.0198
 7296TIP3    H238461   0.313   6.452   6.312 -0.3656  1.1287  0.7138
 7297TIP3   OH238462   3.660   5.134   0.980 -0.2170  0.4236 -0.3869
 7297TIP3    H138463   3.659   5.193   1.055 -0.0339  0.0242 -0.0629
 7297TIP3    H238464   3.568   5.120   0.959 -0.2679  0.5933 -0.2774
 7298TIP3   OH238465   4.937   6.210   2.117  0.1893 -0.2295 -0.7451
 7298TIP3    H138466   5.011   6.162   2.154  2.3179  2.2264 -1.5622
 7298TIP3    H238467   4.969   6.299   2.106 -2.6524  0.7517 -1.9637
 7299TIP3   OH238468   4.059   6.157   8.733 -0.2175 -0.3028 -0.5789
 7299TIP3    H138469   4.051   6.239   8.781  1.7150  0.1295 -0.9197
 7299TIP3    H238470   4.040   6.180   8.643 -1.4326 -0.6128 -0.4123
 7300TIP3   OH238471   0.316   5.325   8.872  0.2122 -0.0632 -0.1928
 7300TIP3    H138472   0.364   5.242   8.880 -0.0520 -0.3618 -1.3787
 7300TIP3    H238473   0.277   5.321   8.784  1.4741  1.9998 -0.9157
 7301TIP3   OH238474   5.720   4.129   1.686 -0.1427  0.1136  0.0235
 7301TIP3    H138475   5.696   4.218   1.711 -1.3119  0.7232 -2.7980
 7301TIP3    H238476   5.719   4.131   1.590 -0.5204 -3.0199 -0.1298
 7302TIP3   OH238477   3.917   5.188   0.571  0.1874 -0.2029 -0.3047
 7302TIP3    H138478   3.942   5.178   0.663  0.0767 -1.0657 -0.3567
 7302TIP3    H238479   3.989   5.150   0.522 -0.8891 -2.1587 -0.4709
 7303TIP3   OH238480   0.961   0.177   8.734  0.6730  0.2857 -0.1845
 7303TIP3    H138481   1.027   0.236   8.698  1.3295 -0.9886 -1.1567
 7303TIP3    H238482   0.880   0.202   8.690  0.9041  0.5718 -0.4539
 7304TIP3   OH238483   5.941   2.921   0.287 -0.2829  0.1507 -0.3940
 7304TIP3    H138484   5.951   2.849   0.224  1.8390  2.1110 -2.5215
 7304TIP3    H238485   5.848   2.924   0.305 -0.5020 -2.9313 -0.3733
 7305TIP3   OH238486   5.204   4.465   7.776 -0.1319  0.4673 -0.0932
 7305TIP3    H138487   5.216   4.559   7.761 -2.0918  0.7623 -0.0432
 7305TIP3    H238488   5.204   4.426   7.689 -1.8315  0.8886 -0.3180
 7306TIP3   OH238489   1.726   2.912   0.247 -0.4042  0.6302  0.0261
 7306TIP3    H138490   1.669   2.881   0.176  0.4166 -2.4959  0.5556
 7306TIP3    H238491   1.671   2.911   0.324 -0.3396  0.3135  0.0689
 7307TIP3   OH238492   4.700   4.227   9.174  0.0796  0.7174 -0.1566
 7307TIP3    H138493   4.744   4.240   9.089  1.2516  1.1630  0.4979
 7307TIP3    H238494   4.726   4.302   9.227  0.0626  0.0121  0.8839
 7308TIP3   OH238495   5.178   2.952   0.523  0.3351 -0.2322 -0.3525
 7308TIP3    H138496   5.224   2.998   0.593  1.5318  0.2221 -1.4166
 7308TIP3    H238497   5.102   3.008   0.505  1.1192  0.7236 -0.7972
 7309TIP3   OH238498   2.487   0.294   0.580  0.6297 -0.5437 -0.4895
 7309TIP3    H138499   2.579   0.271   0.591  0.3977 -0.8808  1.0364
 7309TIP3    H238500   2.442   0.209   0.577  0.1196 -0.4043  1.6316
 7310TIP3   OH238501   0.612   3.113   8.146  0.4610 -0.2159 -1.0106
 7310TIP3    H138502   0.707   3.105   8.145  0.6236  1.0802  0.6574
 7310TIP3    H238503   0.586   3.082   8.232 -0.6394 -0.5665 -1.4504
 7311TIP3   OH238504   4.461   4.344   8.239  0.2072 -0.4261  0.3314
 7311TIP3    H138505   4.521   4.408   8.200  1.9224 -1.6569  0.8037
 7311TIP3    H238506   4.477   4.263   8.190  1.6975 -1.7560  2.7721
 7312TIP3   OH238507   1.049   0.716   1.938 -0.2337 -0.4590  0.2126
 7312TIP3    H138508   0.993   0.791   1.918 -1.2786 -1.1266  0.6046
 7312TIP3    H238509   1.092   0.740   2.020  0.3025  0.1758 -0.2383
 7313TIP3   OH238510   0.136   1.414   1.222  0.0278  0.2917  0.1417
 7313TIP3    H138511   0.182   1.491   1.255 -0.1851  0.0267  1.1048
 7313TIP3    H238512   0.196   1.375   1.158 -0.2905  1.8137 -1.1383
 7314TIP3   OH238513   3.148   5.718   6.902  0.0565  0.1810 -0.4061
 7314TIP3    H138514   3.131   5.746   6.992 -1.2227  0.7473 -0.7858
 7314TIP3    H238515   3.064   5.733   6.857  0.4402 -0.8377 -1.5050
 7315TIP3   OH238516   1.827   5.776   0.020  0.1524  0.0926  0.2288
 7315TIP3    H138517   1.857   5.690   0.050 -0.2693  0.4669  1.8565
 7315TIP3    H238518   1.907   5.823  -0.003  0.6044  0.0676  1.6591
 7316TIP3   OH238519   1.522   0.914   8.062 -0.0620 -0.7312  0.1344
 7316TIP3    H138520   1.613   0.924   8.089 -0.2201 -0.7045  0.6581
 7316TIP3    H238521   1.471   0.926   8.142 -0.5192 -0.9021 -0.1255
 7317TIP3   OH238522   4.773   3.087   0.933 -0.4189  0.9164  0.5360
 7317TIP3    H138523   4.857   3.133   0.938 -0.0490  0.2079  0.9330
 7317TIP3    H238524   4.722   3.123   1.005  0.6971 -0.8805  2.3641
 7318TIP3   OH238525   3.054   5.020   1.616 -0.0521 -0.4729  0.0817
 7318TIP3    H138526   3.014   5.087   1.560 -0.9547  1.9931  3.3826
 7318TIP3    H238527   3.001   4.942   1.600 -2.0538  0.9039 -0.4866
 7319TIP3   OH238528   0.652   4.038   1.307  0.2296  0.4868  0.1149
 7319TIP3    H138529   0.726   4.001   1.258  1.8863  2.0187  1.3187
 7319TIP3    H238530   0.688   4.116   1.349 -2.0563  1.1947  0.9124
 7320TIP3   OH238531   1.199   5.606   7.645 -0.0619 -0.2107 -0.1082
 7320TIP3    H138532   1.157   5.544   7.705 -1.7374  0.1022 -0.9134
 7320TIP3    H238533   1.216   5.683   7.700  1.0251 -0.9334  0.6224
 7321TIP3   OH238534   0.091   4.059   7.627 -0.0578  0.8858  0.6064
 7321TIP3    H138535   0.152   4.056   7.553 -0.7211 -0.2781  0.0740
 7321TIP3    H238536   0.059   3.969   7.635 -1.8422  1.5001  0.7657
 7322TIP3   OH238537   1.434   2.925   0.886  0.0751  0.4278 -0.1061
 7322TIP3    H138538   1.455   2.986   0.815  2.1596  1.0874  0.9801
 7322TIP3    H238539   1.377   2.860   0.846 -0.4077  1.8649 -1.8741
 7323TIP3   OH238540   2.517   3.844   0.013  0.2039  0.1521 -0.4840
 7323TIP3    H138541   2.603   3.883   0.027 -0.8200  3.8791 -3.0037
 7323TIP3    H238542   2.489   3.813   0.099  2.6391  1.9991  1.0780
 7324TIP3   OH238543   4.069   3.293   2.005 -0.1966 -0.0001  0.9784
 7324TIP3    H138544   4.140   3.267   1.947 -1.3352  0.2993 -0.5983
 7324TIP3    H238545   4.087   3.384   2.027 -0.3283  0.2167  0.2021
 7325TIP3   OH238546   2.097   0.730   2.207 -0.2479 -0.6530 -0.0573
 7325TIP3    H138547   2.120   0.745   2.115 -1.7085 -0.5520 -0.4438
 7325TIP3    H238548   2.154   0.660   2.236  0.2854 -0.6340 -1.0271
 7326TIP3   OH238549   1.505   3.219   9.297 -0.2006  0.6522  0.1164
 7326TIP3    H138550   1.456   3.285   9.248  2.4541  1.3382 -1.8612
 7326TIP3    H238551   1.575   3.268   9.340 -0.0361 -0.5060  1.2504
 7327TIP3   OH238552   4.489   3.392   1.595  0.7440 -0.1693 -0.4879
 7327TIP3    H138553   4.554   3.462   1.586 -0.0671  0.7072  0.2195
 7327TIP3    H238554   4.538   3.319   1.632  1.7726 -0.2401 -1.9320
 7328TIP3   OH238555   4.846   5.992   2.706 -0.4305 -0.4331  0.4244
 7328TIP3    H138556   4.850   6.035   2.791 -0.3497  1.7310 -0.5926
 7328TIP3    H238557   4.921   5.933   2.706  0.9501  1.2187  1.0475
 7329TIP3   OH238558   2.799   2.697   1.655  0.1516 -0.2065  0.3798
 7329TIP3    H138559   2.798   2.737   1.568  1.1973  0.6149  0.7201
 7329TIP3    H238560   2.750   2.616   1.646 -2.4964  1.3649 -0.2470
 7330TIP3   OH238561   1.416   5.724   7.512  0.0100  0.3125  0.0932
 7330TIP3    H138562   1.476   5.650   7.517 -0.2233  0.1485  0.5719
 7330TIP3    H238563   1.329   5.684   7.516 -0.1195  0.5825 -0.0472
 7331TIP3   OH238564   3.792   5.749   2.797 -0.3881 -0.7570 -0.4451
 7331TIP3    H138565   3.871   5.702   2.825  0.0409  0.4321  0.4315
 7331TIP3    H238566   3.750   5.776   2.879  0.0267  1.4214 -0.8997
 7332TIP3   OH238567   1.882   4.086   8.755  0.3374  0.2226  0.1636
 7332TIP3    H138568   1.869   4.004   8.803 -2.0403  0.5493  0.1921
 7332TIP3    H238569   1.826   4.149   8.799  2.0552  1.9053  0.0929
 7333TIP3   OH238570   4.808   4.163   2.186  0.7804  0.0950  0.0261
 7333TIP3    H138571   4.871   4.189   2.119  0.1978 -2.7049 -1.7811
 7333TIP3    H238572   4.729   4.139   2.136 -0.0153 -1.1487  1.7899
 7334TIP3   OH238573   3.188   0.251   1.850  0.0269  0.0991  0.8083
 7334TIP3    H138574   3.112   0.283   1.803 -0.9473 -0.7324  1.7632
 7334TIP3    H238575   3.228   0.187   1.791 -1.0750 -0.7968  1.0142
 7335TIP3   OH238576   2.249   6.183   2.675 -0.1019  0.3400 -0.0668
 7335TIP3    H138577   2.243   6.121   2.601 -0.4834 -0.8762  0.9485
 7335TIP3    H238578   2.233   6.269   2.635  0.7479 -0.1604 -1.5711
 7336TIP3   OH238579   2.130   5.975   7.370  0.4916  0.1189 -0.2744
 7336TIP3    H138580   2.218   5.958   7.403  0.9144  2.6025  0.0886
 7336TIP3    H238581   2.138   6.057   7.321 -1.7984  0.9723  0.6218
 7337TIP3   OH238582   5.620   3.708   9.051  0.6696 -0.1209 -0.1168
 7337TIP3    H138583   5.695   3.663   9.013  0.4353 -1.1972  0.6365
 7337TIP3    H238584   5.633   3.699   9.146  0.0320  0.4232  0.0275
 7338TIP3   OH238585   4.616   1.370   0.595  0.6947 -0.5343  0.4095
 7338TIP3    H138586   4.568   1.288   0.596  0.1756 -0.3533  3.7914
 7338TIP3    H238587   4.684   1.358   0.529 -0.9355 -2.6501 -1.0125
 7339TIP3   OH238588   6.389   2.800   1.371 -0.2642  0.3149  0.5205
 7339TIP3    H138589   6.445   2.727   1.345 -0.9543 -0.0850  0.1477
 7339TIP3    H238590   6.432   2.877   1.333 -0.4125 -0.0811 -0.4724
 7340TIP3   OH238591   2.276   5.755   1.901 -0.2758 -0.9150  0.4459
 7340TIP3    H138592   2.259   5.688   1.835  0.8587  0.0239 -0.8459
 7340TIP3    H238593   2.206   5.819   1.890 -0.2783 -0.9262  0.3993
 7341TIP3   OH238594   0.070   1.909   0.607  0.2939  0.2157  0.1503
 7341TIP3    H138595   0.137   1.970   0.574  0.1656  0.5561  0.5142
 7341TIP3    H238596   0.017   1.888   0.530 -0.5244  1.6711  0.2840
 7342TIP3   OH238597   2.734   1.639   6.650 -0.0422 -0.4359  0.0465
 7342TIP3    H138598   2.648   1.598   6.654 -0.0414 -0.4513 -0.0780
 7342TIP3    H238599   2.746   1.679   6.736  0.3442 -1.4748  0.4975
 7343TIP3   OH238600   0.863   5.007   9.344 -0.2492  0.4386 -1.0964
 7343TIP3    H138601   0.845   4.915   9.364  0.8884  0.2254 -0.9962
 7343TIP3    H238602   0.885   5.007   9.250  0.6858  0.4510 -0.8862
 7344TIP3   OH238603   2.825   2.651   7.916  0.2004 -0.1507  0.4675
 7344TIP3    H138604   2.789   2.641   7.828  1.1930 -0.8120  0.1242
 7344TIP3    H238605   2.898   2.590   7.920  0.7052  0.4770  1.4656
 7345TIP3   OH238606   3.942   5.801   8.467 -0.6483 -0.6113  0.0704
 7345TIP3    H138607   3.980   5.735   8.408 -1.0742 -0.2503 -0.6258
 7345TIP3    H238608   4.018   5.847   8.503 -0.3726 -0.9322 -0.0934
 7346TIP3   OH238609   3.429   1.206   1.891 -0.3863 -0.4424  0.7200
 7346TIP3    H138610   3.417   1.112   1.880  0.3114 -0.3193 -1.4036
 7346TIP3    H238611   3.341   1.239   1.913 -0.6831 -1.5192  1.2167
 7347TIP3   OH238612   2.914   2.045   2.869  0.6782 -0.2235 -0.0367
 7347TIP3    H138613   2.899   2.028   2.776 -0.0748  0.4904 -0.0592
 7347TIP3    H238614   2.891   2.137   2.881  0.3762 -0.4091  0.9365
 7348TIP3   OH238615   3.300   3.965   7.331 -0.1063 -0.1283 -0.6355
 7348TIP3    H138616   3.349   4.046   7.317  0.2798  0.2554  2.2991
 7348TIP3    H238617   3.366   3.898   7.342 -0.0584  0.2617  2.5802
 7349TIP3   OH238618   1.982   1.977   7.354  0.3619  0.0229  0.1468
 7349TIP3    H138619   2.029   1.990   7.436 -0.0315  0.1371  0.3595
 7349TIP3    H238620   2.040   1.923   7.300  0.4668 -0.3663  0.6429
 7350TIP3   OH238621   5.364   4.911   7.116  0.0569  0.0777 -0.3261
 7350TIP3    H138622   5.359   4.816   7.129 -0.6486  0.1062 -0.4017
 7350TIP3    H238623   5.366   4.922   7.021 -2.5027  0.2502 -0.4279
 7351TIP3   OH238624   1.776   4.726   0.178 -0.6772  0.1599  0.7580
 7351TIP3    H138625   1.771   4.819   0.158 -1.3460 -0.2785 -1.3467
 7351TIP3    H238626   1.694   4.689   0.143 -1.0976 -1.0297  2.8237
 7352TIP3   OH238627   1.122   5.383   1.347 -0.4848 -0.4293 -0.1845
 7352TIP3    H138628   1.103   5.312   1.408  2.0487  0.2511  1.5456
 7352TIP3    H238629   1.201   5.354   1.301  0.4157  1.0894  0.3452
 7353TIP3   OH238630   1.301   5.590   8.532 -0.1715 -0.3103 -0.2217
 7353TIP3    H138631   1.268   5.598   8.622 -1.3149  0.0594 -0.6562
 7353TIP3    H238632   1.245   5.648   8.481 -0.0579 -1.1301 -1.3099
 7354TIP3   OH238633   4.125   0.830   9.079  0.5448 -0.0152  0.0009
 7354TIP3    H138634   4.056   0.765   9.061 -0.3773  0.6784  0.9487
 7354TIP3    H238635   4.194   0.780   9.122 -0.6700 -0.1931  1.8516
 7355TIP3   OH238636   6.336   3.610   2.192 -0.1511  0.6637  0.1125
 7355TIP3    H138637   6.407   3.641   2.248 -0.3562  0.5206  0.4549
 7355TIP3    H238638   6.266   3.587   2.252 -0.1176 -0.1767 -0.1498
 7356TIP3   OH238639   5.777   1.732   1.066 -0.1084  0.4915 -0.1074
 7356TIP3    H138640   5.728   1.803   1.107 -2.1332 -1.2705  0.7583
 7356TIP3    H238641   5.866   1.742   1.099 -0.6600  1.7833  1.1063
 7357TIP3   OH238642   0.237   3.748   6.283  0.4486  0.0068 -0.3441
 7357TIP3    H138643   0.249   3.798   6.202 -0.1274  1.2127  0.2906
 7357TIP3    H238644   0.149   3.710   6.275  0.5728 -0.2564 -0.4771
 7358TIP3   OH238645   2.049   0.902   1.689  0.3666  0.2500  0.8143
 7358TIP3    H138646   2.075   0.815   1.659 -0.0746  0.4167 -0.1013
 7358TIP3    H238647   1.955   0.894   1.708  0.0845  0.7760 -0.2881
 7359TIP3   OH238648   4.056   3.970   0.943 -0.5193  0.3684  0.9385
 7359TIP3    H138649   3.983   3.959   1.004 -1.9730 -1.5084 -0.9943
 7359TIP3    H238650   4.040   3.906   0.874  1.3828  1.9308 -1.1165
 7360TIP3   OH238651   1.020   2.132   1.688 -0.1185  0.5369 -0.0867
 7360TIP3    H138652   1.068   2.051   1.670 -0.5517  0.0946  0.7165
 7360TIP3    H238653   1.086   2.201   1.679 -0.1739  0.3606 -2.9296
 7361TIP3   OH238654   3.647   1.732   1.645 -0.3190  0.6154  0.0439
 7361TIP3    H138655   3.567   1.720   1.594 -1.9250  3.1864  1.7032
 7361TIP3    H238656   3.648   1.825   1.666  1.7603  0.1930  2.2667
 7362TIP3   OH238657   4.667   2.300   2.244  0.3314 -0.2008 -0.4116
 7362TIP3    H138658   4.601   2.233   2.230 -0.9199  0.4573  1.8807
 7362TIP3    H238659   4.621   2.383   2.232  1.2446  0.2794 -0.7440
 7363TIP3   OH238660   2.396   1.626   8.618  0.1521 -0.3310  0.1474
 7363TIP3    H138661   2.487   1.620   8.646 -0.1772  2.7897  2.5301
 7363TIP3    H238662   2.392   1.708   8.569 -1.4911  0.0328  0.8282
 7364TIP3   OH238663   5.374   2.797   0.402  0.1676 -0.0604 -0.2459
 7364TIP3    H138664   5.292   2.838   0.431 -0.0586 -0.8348  0.2526
 7364TIP3    H238665   5.394   2.839   0.318 -0.0540  1.0445  0.2405
 7365TIP3   OH238666   0.559   2.775   9.244  0.1203  0.0227 -0.5230
 7365TIP3    H138667   0.527   2.798   9.157  1.9160  0.4137 -1.1229
 7365TIP3    H238668   0.628   2.839   9.262 -0.2455 -0.0128  1.2318
 7366TIP3   OH238669   0.602   1.158   1.737 -0.2697  0.3104 -0.1151
 7366TIP3    H138670   0.688   1.129   1.707 -0.2922  0.2913 -0.1619
 7366TIP3    H238671   0.541   1.124   1.671 -0.3548 -0.0131  0.1264
 7367TIP3   OH238672   5.408   5.245   1.230 -0.5885 -0.1345 -0.3707
 7367TIP3    H138673   5.489   5.247   1.281 -1.2666  0.0974  0.7347
 7367TIP3    H238674   5.345   5.203   1.288 -1.6354  1.0175 -0.6361
 7368TIP3   OH238675   3.344   0.693   0.158 -0.1300 -0.6380  0.1856
 7368TIP3    H138676   3.322   0.773   0.205 -2.2564  0.4670 -2.4476
 7368TIP3    H238677   3.433   0.708   0.127  0.0957 -0.0310  1.0680
 7369TIP3   OH238678   2.086   3.584   7.557 -0.2100 -0.7659 -0.2451
 7369TIP3    H138679   2.178   3.603   7.576  0.1289 -1.6448 -0.9648
 7369TIP3    H238680   2.078   3.490   7.568 -1.2215 -0.5915  0.5878
 7370TIP3   OH238681   2.283   3.092   2.620  0.6050 -0.6660 -0.6873
 7370TIP3    H138682   2.232   3.172   2.631  1.1195 -0.5901  1.5796
 7370TIP3    H238683   2.230   3.024   2.662  1.6030 -0.8847  0.2514
 7371TIP3   OH238684   0.220   5.019   1.951 -0.1994 -0.3404  0.3752
 7371TIP3    H138685   0.267   4.968   1.885  1.3699  1.5426 -0.0720
 7371TIP3    H238686   0.134   5.034   1.913 -0.7137 -2.5596  0.5228
 7372TIP3   OH238687   5.997   0.119   9.294  0.0059 -0.1738 -0.1071
 7372TIP3    H138688   5.943   0.130   9.371  0.5905 -1.1804  0.4790
 7372TIP3    H238689   5.987   0.200   9.244 -1.6986 -0.1813  0.1801
 7373TIP3   OH238690   6.385   1.450   1.912 -0.2938  0.5800 -0.3014
 7373TIP3    H138691   6.453   1.419   1.972  0.4118  0.5955 -1.0693
 7373TIP3    H238692   6.345   1.524   1.957 -1.1330 -0.6065  1.0030
 7374TIP3   OH238693   4.667   5.347   1.765 -0.3345 -0.0868 -0.2184
 7374TIP3    H138694   4.655   5.268   1.819 -0.6140  0.8202  1.0935
 7374TIP3    H238695   4.579   5.366   1.732 -0.3675 -0.0381 -0.1045
 7375TIP3   OH238696   0.642   0.768   8.641  0.1260  0.0743 -0.3169
 7375TIP3    H138697   0.566   0.753   8.586  0.1445  0.2443 -0.3902
 7375TIP3    H238698   0.710   0.798   8.580  1.3275 -3.2596 -0.8450
 7376TIP3   OH238699   2.922   1.294   8.840  0.4351  0.3244 -0.7622
 7376TIP3    H138700   2.903   1.331   8.754  0.0829  1.4725 -0.2075
 7376TIP3    H238701   2.860   1.221   8.849  1.5606 -0.8691 -2.1253
 7377TIP3   OH238702   3.251   1.485   2.265 -0.6129 -0.4372 -0.6572
 7377TIP3    H138703   3.295   1.556   2.219  1.3957 -1.3617 -0.2774
 7377TIP3    H238704   3.322   1.433   2.303 -2.0969 -0.6035  2.1970
 7378TIP3   OH238705   2.359   0.733   2.050 -0.0834  0.0136  0.1660
 7378TIP3    H138706   2.363   0.727   1.955 -1.0667  0.7545  0.0617
 7378TIP3    H238707   2.313   0.815   2.067  2.4243  1.3107  1.3126
 7379TIP3   OH238708   5.483   1.811   2.668 -0.5072 -0.3355  0.6146
 7379TIP3    H138709   5.429   1.752   2.615 -1.1487  0.0449  0.8377
 7379TIP3    H238710   5.494   1.765   2.751 -1.2353 -0.0319  0.8863
 7380TIP3   OH238711   0.842   2.461   1.667 -0.1792  0.0444 -0.0342
 7380TIP3    H138712   0.769   2.482   1.725 -0.9203  0.2754 -1.0105
 7380TIP3    H238713   0.866   2.372   1.690  1.5227  1.1010  2.6374
 7381TIP3   OH238714   2.038   4.131   8.371 -0.5127  0.0638 -0.4737
 7381TIP3    H138715   2.049   4.140   8.276  0.8236  2.6200 -0.1468
 7381TIP3    H238716   1.966   4.190   8.393  1.6229  2.5158  0.4749
 7382TIP3   OH238717   4.036   4.558   7.702  0.1278 -0.3729  0.6012
 7382TIP3    H138718   3.975   4.630   7.687  0.3443 -0.1731  0.6638
 7382TIP3    H238719   4.054   4.560   7.796  1.8926  0.9561  0.2987
 7383TIP3   OH238720   0.076   1.595   7.480  0.4560  0.2473 -0.0448
 7383TIP3    H138721   0.071   1.683   7.516  0.1186  0.6513 -1.0564
 7383TIP3    H238722   0.151   1.597   7.421  1.5022 -0.6352  1.1976
 7384TIP3   OH238723   2.982   4.833   7.263  0.9636 -0.2948  0.2640
 7384TIP3    H138724   2.997   4.742   7.287  0.9714 -0.7996 -1.4924
 7384TIP3    H238725   3.069   4.874   7.269  0.6806  0.0915  2.7566
 7385TIP3   OH238726   2.503   0.106   8.281 -0.7942  0.7112  0.9220
 7385TIP3    H138727   2.511   0.011   8.274 -1.1503  0.7168  0.3496
 7385TIP3    H238728   2.506   0.124   8.374  1.9675  0.3689  0.9875
 7386TIP3   OH238729   2.710   1.299   8.023  0.1343  0.5300  0.1142
 7386TIP3    H138730   2.799   1.264   8.013 -0.3562 -0.3680 -1.3701
 7386TIP3    H238731   2.691   1.342   7.940 -1.4253 -0.7492 -0.2307
 7387TIP3   OH238732   1.855   2.990   6.456 -0.1923  0.4870  0.7727
 7387TIP3    H138733   1.890   3.058   6.399  1.3456 -1.0925 -0.2808
 7387TIP3    H238734   1.760   2.996   6.445 -0.0232  1.6669 -0.2257
 7388TIP3   OH238735   5.112   4.259   9.407 -0.2157  0.0178 -0.1348
 7388TIP3    H138736   5.095   4.260   9.313  0.3126 -1.3218 -0.2626
 7388TIP3    H238737   5.029   4.283   9.447 -0.4252  0.6642 -0.9413
 7389TIP3   OH238738   2.302   5.073   9.132  0.1353 -0.1547  0.1453
 7389TIP3    H138739   2.283   4.992   9.084  1.3974  0.9592 -2.3847
 7389TIP3    H238740   2.219   5.120   9.134 -0.1424 -0.6276 -0.1010
 7390TIP3   OH238741   2.196   0.373   3.159  0.7686 -0.7482 -0.0113
 7390TIP3    H138742   2.166   0.463   3.168  2.0980 -0.0411 -2.0274
 7390TIP3    H238743   2.255   0.361   3.234 -0.9732 -0.7026  1.4524
 7391TIP3   OH238744   1.770   5.893   8.174  0.3927  0.1621 -0.3034
 7391TIP3    H138745   1.783   5.871   8.081  1.5698 -2.3499  0.3822
 7391TIP3    H238746   1.686   5.940   8.175  0.8968  1.2930 -2.7446
 7392TIP3   OH238747   3.961   4.915   8.236  0.0805 -0.7855 -0.1162
 7392TIP3    H138748   4.012   4.960   8.169 -0.1992 -1.0601 -0.5173
 7392TIP3    H238749   3.912   4.984   8.280  2.0258 -0.2685  1.4036
 7393TIP3   OH238750   5.461   5.002   3.071 -0.7794  0.2402  0.2406
 7393TIP3    H138751   5.433   5.078   3.122 -0.2766  1.8869 -1.8226
 7393TIP3    H238752   5.556   5.008   3.069 -0.8136  0.5909 -1.3990
 7394TIP3   OH238753   1.579   6.138   2.263  0.5697  0.0812 -0.1241
 7394TIP3    H138754   1.620   6.058   2.297  1.7292  0.6639 -0.1187
 7394TIP3    H238755   1.508   6.156   2.324  0.4610 -0.7960  0.0253
 7395TIP3   OH238756   2.746   4.543   9.087 -0.0728  0.9092  0.3290
 7395TIP3    H138757   2.676   4.569   9.026  1.3065  0.8580 -1.3336
 7395TIP3    H238758   2.827   4.565   9.041  1.0529 -1.2409  1.1918
 7396TIP3   OH238759   3.922   2.662   9.138  0.4112 -0.4452 -0.4309
 7396TIP3    H138760   3.833   2.695   9.153  0.5342 -0.6742  0.9291
 7396TIP3    H238761   3.910   2.590   9.076 -0.2114  0.1982 -1.0843
 7397TIP3   OH238762   3.024   5.643   1.205 -0.1913 -0.3566 -0.3034
 7397TIP3    H138763   2.959   5.611   1.267 -0.8222  1.7387  0.1891
 7397TIP3    H238764   3.107   5.639   1.253 -0.5643  0.5565  0.4319
 7398TIP3   OH238765   4.173   3.632   7.239  0.3565  0.7564 -0.1667
 7398TIP3    H138766   4.120   3.606   7.315 -1.0171 -1.3889 -1.7406
 7398TIP3    H238767   4.172   3.727   7.241  0.4306  0.7945  2.5128
 7399TIP3   OH238768   3.623   5.603   1.301  0.1326 -0.0913  0.4785
 7399TIP3    H138769   3.656   5.667   1.237  0.6227  0.1976  1.0065
 7399TIP3    H238770   3.569   5.655   1.360 -0.1610 -0.3236  0.4156
 7400TIP3   OH238771   0.502   4.338   8.425 -0.1370  0.3199 -0.1790
 7400TIP3    H138772   0.590   4.362   8.394  0.5433 -1.0410  0.5971
 7400TIP3    H238773   0.482   4.256   8.381 -0.9609  0.5276 -0.2058
 7401TIP3   OH238774   4.314   0.464   7.974  0.0521 -0.1765  0.1063
 7401TIP3    H138775   4.265   0.392   7.934  0.6610  0.3127 -1.6141
 7401TIP3    H238776   4.390   0.422   8.015  0.0729 -0.5858 -0.3394
 7402TIP3   OH238777   3.126   5.905   7.100  0.3478  0.3834 -0.2375
 7402TIP3    H138778   3.100   5.863   7.182  2.0273  1.1066  0.7199
 7402TIP3    H238779   3.222   5.907   7.104  0.3934  2.3426 -1.2236
 7403TIP3   OH238780   4.310   5.021   9.145 -0.4680 -0.2968 -0.4479
 7403TIP3    H138781   4.386   4.995   9.092  1.2343  0.0697  1.6917
 7403TIP3    H238782   4.308   5.117   9.138  0.4188 -0.1554  0.9294
 7404TIP3   OH238783   2.572   0.424   3.212  0.5143  0.3583  0.6078
 7404TIP3    H138784   2.560   0.350   3.272  0.6515  0.7825  1.1616
 7404TIP3    H238785   2.537   0.392   3.128 -0.1592 -0.0529  1.0358
 7405TIP3   OH238786   3.725   2.416   0.222  0.5646 -0.2299  0.2040
 7405TIP3    H138787   3.705   2.382   0.309 -1.1991  1.3799  0.5162
 7405TIP3    H238788   3.806   2.466   0.233  0.1649  0.2590  1.0406
 7406TIP3   OH238789   3.829   3.609   7.366 -0.1131 -0.0479  0.6737
 7406TIP3    H138790   3.820   3.702   7.343 -0.2596 -0.1529  0.3002
 7406TIP3    H238791   3.740   3.575   7.363 -0.1797 -0.0091  1.6733
 7407TIP3   OH238792   1.169   2.850   7.737  0.1359  0.7101  0.3265
 7407TIP3    H138793   1.130   2.936   7.726 -1.4614 -0.0869 -0.5915
 7407TIP3    H238794   1.098   2.789   7.719  1.2802 -0.8094  0.7543
 7408TIP3   OH238795   4.893   5.376   8.325  0.6511 -0.2205 -0.5315
 7408TIP3    H138796   4.836   5.353   8.398  0.6908  1.2906 -0.0066
 7408TIP3    H238797   4.833   5.393   8.252  0.2577  2.6889  0.3681
 7409TIP3   OH238798   1.275   4.011   0.544  0.1810  0.2956 -0.1102
 7409TIP3    H138799   1.250   4.069   0.616 -2.2042 -0.9885  0.1882
 7409TIP3    H238800   1.211   4.029   0.475  1.0875 -0.0663 -1.0789
 7410TIP3   OH238801   0.149   0.794   1.775  0.3472  0.1936  0.0883
 7410TIP3    H138802   0.241   0.778   1.751  0.0937 -0.2927 -0.5882
 7410TIP3    H238803   0.130   0.726   1.840  0.8499  1.1237  1.2355
 7411TIP3   OH238804   5.370   1.888   0.565  0.0410 -0.8513  0.5967
 7411TIP3    H138805   5.431   1.839   0.620  0.1298 -0.6632  0.6650
 7411TIP3    H238806   5.352   1.829   0.492  2.4936  0.1544 -0.9183
 7412TIP3   OH238807   2.708   4.377   8.756  0.1988 -0.1465  0.1883
 7412TIP3    H138808   2.714   4.298   8.811  3.0553 -0.2012 -0.0310
 7412TIP3    H238809   2.666   4.348   8.676  0.1240 -1.1697  0.5835
 7413TIP3   OH238810   5.601   4.720   2.237  0.3787 -0.1622  0.2329
 7413TIP3    H138811   5.534   4.675   2.289  1.1773  0.1505  1.5888
 7413TIP3    H238812   5.659   4.649   2.207 -0.3250 -0.3907 -0.6251
 7414TIP3   OH238813   6.127   3.863   2.243  0.0765  0.0778  0.4663
 7414TIP3    H138814   6.075   3.942   2.259 -2.6859 -1.4476 -0.4577
 7414TIP3    H238815   6.119   3.848   2.148  2.2124 -0.2719  0.2885
 7415TIP3   OH238816   4.656   5.845   8.637  0.2329 -0.4449  0.0829
 7415TIP3    H138817   4.589   5.865   8.572  0.7566  1.9322  0.1990
 7415TIP3    H238818   4.644   5.752   8.655 -1.1075 -0.7634 -2.0455
 7416TIP3   OH238819   5.256   5.089   2.853  1.1366 -0.0139  0.0149
 7416TIP3    H138820   5.321   5.118   2.789 -0.8994  0.7121 -1.8317
 7416TIP3    H238821   5.298   5.015   2.897  2.7647 -0.3200 -1.9026
 7417TIP3   OH238822   4.114   3.084   0.202  0.1453  0.7132 -0.5148
 7417TIP3    H138823   4.142   3.012   0.259 -0.8877  0.4689 -0.2908
 7417TIP3    H238824   4.173   3.156   0.225  1.0513  0.0118 -0.5873
 7418TIP3   OH238825   0.449   2.913   1.959  0.0679 -0.1916 -0.0450
 7418TIP3    H138826   0.464   2.991   1.905  1.4186 -1.5558 -1.7658
 7418TIP3    H238827   0.424   2.845   1.896  2.0912 -1.9445  0.9281
 7419TIP3   OH238828   0.321   0.655   8.688 -0.0013  0.0934 -0.3838
 7419TIP3    H138829   0.319   0.658   8.783  0.6395 -3.1907 -0.1643
 7419TIP3    H238830   0.229   0.646   8.662 -0.2373  1.5901 -0.1895
 7420TIP3   OH238831   5.828   4.029   9.308 -0.3731  0.7279  0.4975
 7420TIP3    H138832   5.820   3.934   9.316 -1.7787  0.7620 -0.2134
 7420TIP3    H238833   5.843   4.059   9.397  0.9374 -0.2018  0.6339
 7421TIP3   OH238834   2.260   5.293   8.297  0.0664  0.9105  0.1854
 7421TIP3    H138835   2.300   5.218   8.251 -0.1028  0.9605 -0.0476
 7421TIP3    H238836   2.243   5.261   8.385  0.9606  0.9996  0.4071
 7422TIP3   OH238837   4.195   4.020   0.183  0.3034  0.4612  0.6627
 7422TIP3    H138838   4.278   4.068   0.184 -0.1862  1.6627 -2.5178
 7422TIP3    H238839   4.187   3.989   0.092 -3.1071  1.1228  0.5963
 7423TIP3   OH238840   2.003   5.924   0.868  0.3686  0.5840  0.1155
 7423TIP3    H138841   2.047   5.957   0.790 -1.4825 -0.4342 -1.4345
 7423TIP3    H238842   1.929   5.983   0.882  0.1718  0.2397  0.5646
 7424TIP3   OH238843   5.956   2.624   2.041 -0.4843  0.3697  0.2690
 7424TIP3    H138844   5.955   2.715   2.070 -2.5885  0.3851  0.2616
 7424TIP3    H238845   5.908   2.576   2.109  1.7475 -1.0108  0.9810
 7425TIP3   OH238846   5.006   5.584   2.056  0.0162  0.2402 -0.1375
 7425TIP3    H138847   4.924   5.536   2.069 -0.0075  0.4454  0.5253
 7425TIP3    H238848   4.989   5.671   2.093  0.5923  0.2225  0.1832
 7426TIP3   OH238849   4.691   0.741   7.919  0.1884  0.0714  0.6293
 7426TIP3    H138850   4.668   0.670   7.978 -0.2772  0.4525  0.9127
 7426TIP3    H238851   4.778   0.718   7.887  0.2998 -0.3132  1.1928
 7427TIP3   OH238852   0.726   2.571   2.030 -0.5134 -0.1746 -0.1421
 7427TIP3    H138853   0.817   2.560   2.000 -0.4498  1.1432 -0.5265
 7427TIP3    H238854   0.676   2.585   1.949 -0.4902  2.5348  0.2284
 7428TIP3   OH238855   1.670   1.506   0.722  0.1983  0.0161 -0.0874
 7428TIP3    H138856   1.629   1.448   0.786  0.4498  1.8156  1.8337
 7428TIP3    H238857   1.758   1.470   0.711  0.1749 -0.2832  0.6344
 7429TIP3   OH238858   3.782   2.458   1.247  0.5262  0.2607 -0.7720
 7429TIP3    H138859   3.699   2.462   1.200 -1.6979 -0.3271  2.7331
 7429TIP3    H238860   3.767   2.393   1.316  3.2125  1.5758  1.2167
 7430TIP3   OH238861   2.026   5.963   8.888  0.0463  0.1464 -0.1458
 7430TIP3    H138862   2.098   5.993   8.943  1.2754 -1.5325 -0.7439
 7430TIP3    H238863   2.029   5.867   8.893 -0.7572 -0.0274 -1.9080
 7431TIP3   OH238864   0.309   2.589   2.263 -0.2745 -0.4331  0.0830
 7431TIP3    H138865   0.238   2.528   2.282  0.2243 -1.3738 -0.9312
 7431TIP3    H238866   0.268   2.657   2.209 -0.3633 -1.1049 -0.7092
 7432TIP3   OH238867   0.128   1.426   9.346  0.0060  0.1322  0.7578
 7432TIP3    H138868   0.175   1.478   9.412  0.0008  0.6722  0.3421
 7432TIP3    H238869   0.152   1.467   9.263 -0.9065  0.1730  0.5099
 7433TIP3   OH238870   6.454   4.683   1.124 -0.1177  0.3234  1.0487
 7433TIP3    H138871   6.448   4.606   1.068 -3.9690 -1.2686  3.2510
 7433TIP3    H238872   6.416   4.753   1.072 -0.1485 -0.1935  0.3536
 7434TIP3   OH238873   5.537   5.522   0.554  0.2422 -0.2621 -0.3905
 7434TIP3    H138874   5.504   5.499   0.467  0.2491 -1.5500 -0.0637
 7434TIP3    H238875   5.466   5.573   0.593  0.1153  0.0635 -1.0255
 7435TIP3   OH238876   3.237   1.767   7.173 -0.0110 -0.0122  0.1890
 7435TIP3    H138877   3.172   1.703   7.143  1.2203 -1.3852  0.3356
 7435TIP3    H238878   3.312   1.752   7.116  0.2606  1.4257  0.1395
 7436TIP3   OH238879   1.155   3.350   0.276  0.2064 -0.1998 -0.0004
 7436TIP3    H138880   1.138   3.313   0.363  0.4012 -0.2640  0.0104
 7436TIP3    H238881   1.112   3.435   0.278 -2.3244 -1.3463 -0.8232
 7437TIP3   OH238882   0.662   6.081   0.551 -0.0330 -0.5157 -0.5301
 7437TIP3    H138883   0.575   6.066   0.515 -0.4196 -0.1667  0.2471
 7437TIP3    H238884   0.668   6.022   0.626  0.4608 -0.6509 -0.6713
 7438TIP3   OH238885   5.541   1.292   6.837 -0.0349  0.2396 -0.1403
 7438TIP3    H138886   5.463   1.345   6.820 -0.7577 -1.0825 -1.0789
 7438TIP3    H238887   5.613   1.355   6.836 -0.7986  1.1508 -1.7143
 7439TIP3   OH238888   0.587   1.713   1.459 -0.6810 -0.2420 -0.2059
 7439TIP3    H138889   0.513   1.678   1.409 -1.2217 -0.9833  1.0689
 7439TIP3    H238890   0.659   1.653   1.441 -1.4771 -1.8103  1.6002
 7440TIP3   OH238891   1.076   3.069   7.113  0.5736  0.3126  0.5862
 7440TIP3    H138892   1.089   3.023   7.030  0.2944  2.3201 -0.6453
 7440TIP3    H238893   0.985   3.098   7.109  1.2103  2.4346  0.4827
 7441TIP3   OH238894   0.226   0.667   9.191  0.2713  0.3352 -0.3811
 7441TIP3    H138895   0.175   0.745   9.212  1.4992  0.8514  0.8602
 7441TIP3    H238896   0.265   0.641   9.274  0.3067 -1.3135 -0.8747
 7442TIP3   OH238897   2.471   5.418   0.230  0.2098 -0.0294 -0.0242
 7442TIP3    H138898   2.432   5.337   0.264 -0.4650  0.4158  0.2844
 7442TIP3    H238899   2.399   5.481   0.232  0.2774  0.1598 -1.7905
 7443TIP3   OH238900   2.160   5.571   8.581  0.0115  0.3790 -0.1395
 7443TIP3    H138901   2.213   5.648   8.602  0.1036 -0.4562  3.3541
 7443TIP3    H238902   2.211   5.497   8.616 -2.3936 -0.6495  1.4621
 7444TIP3   OH238903  -0.016   3.693   0.804  0.6704 -0.7105  0.5821
 7444TIP3    H138904   0.022   3.780   0.792 -0.0321 -0.4467  0.1826
 7444TIP3    H238905  -0.005   3.674   0.897  1.8049 -0.6705  0.4712
 7445TIP3   OH238906   3.844   0.515   0.886  0.4928  0.3528  0.2157
 7445TIP3    H138907   3.802   0.601   0.883  0.6641  0.4210 -0.3989
 7445TIP3    H238908   3.899   0.512   0.807 -0.5500 -0.8491 -0.5076
 7446TIP3   OH238909   3.155   3.616   8.640  0.1005  0.2526 -0.2775
 7446TIP3    H138910   3.118   3.700   8.613  0.1819  0.1136 -0.8247
 7446TIP3    H238911   3.247   3.635   8.657  0.1202  0.2721 -0.4064
 7447TIP3   OH238912   6.130   3.409   6.339 -0.2787 -0.0516  0.6749
 7447TIP3    H138913   6.172   3.398   6.253 -0.4443  1.2545  0.4081
 7447TIP3    H238914   6.202   3.409   6.401 -0.0563  0.1366  0.4181
 7448TIP3   OH238915   3.874   1.923   0.342  0.2977 -0.2927  0.2162
 7448TIP3    H138916   3.784   1.955   0.331 -0.4186 -1.5146  2.0865
 7448TIP3    H238917   3.887   1.864   0.268 -0.0574  0.6316 -0.6156
 7449TIP3   OH238918   6.021   5.062   6.967 -0.2799  0.4113  0.0643
 7449TIP3    H138919   6.022   5.048   6.872 -0.9578 -2.4803  0.3893
 7449TIP3    H238920   6.074   4.991   7.002 -1.7607  0.1707  1.9603
 7450TIP3   OH238921   2.456   6.121   8.004 -0.8140 -0.2331 -0.2257
 7450TIP3    H138922   2.423   6.045   7.956 -0.0465 -0.5274 -0.2996
 7450TIP3    H238923   2.549   6.124   7.982 -0.7609  0.4932  0.0949
 7451TIP3   OH238924   1.814   5.854   2.464 -0.5283 -0.6269 -0.3213
 7451TIP3    H138925   1.882   5.851   2.396 -0.3068  0.6846 -0.1784
 7451TIP3    H238926   1.740   5.807   2.425 -1.1414  1.8012 -2.3461
 7452TIP3   OH238927   2.208   1.871   9.209  0.6011  0.6674  0.3717
 7452TIP3    H138928   2.285   1.902   9.161  0.0973  0.2488 -0.7312
 7452TIP3    H238929   2.179   1.948   9.259  0.9126  1.2252 -0.2890
 7453TIP3   OH238930   5.420   0.174   9.056  0.1307 -0.3991  0.0673
 7453TIP3    H138931   5.477   0.206   8.986 -0.1429 -0.7574 -0.3263
 7453TIP3    H238932   5.386   0.253   9.097  1.5982 -0.1751  0.8910
 7454TIP3   OH238933   4.389   0.777   2.888 -0.1112 -0.4329  0.0237
 7454TIP3    H138934   4.416   0.727   2.965  1.8304 -0.5296 -0.6761
 7454TIP3    H238935   4.323   0.722   2.845  0.6517 -1.5693  0.2589
 7455TIP3   OH238936   1.113   5.029   2.163  0.0533 -0.1571  0.0526
 7455TIP3    H138937   1.112   4.986   2.249 -0.3985  0.7899  0.5419
 7455TIP3    H238938   1.198   5.005   2.126  1.8383  2.1704  2.2495
 7456TIP3   OH238939   1.099   1.531   9.173 -0.5706  0.0547  0.2134
 7456TIP3    H138940   1.048   1.501   9.098  1.0133  0.2202 -0.9788
 7456TIP3    H238941   1.150   1.605   9.140 -0.5889  0.7976  1.7407
 7457TIP3   OH238942   6.332   3.973   6.711  0.1214  0.2929  0.2357
 7457TIP3    H138943   6.367   3.920   6.639 -0.5975  0.5481 -0.3109
 7457TIP3    H238944   6.240   3.949   6.717  0.1518  0.3449  1.0136
 7458TIP3   OH238945   2.781   1.993   0.717 -0.5210  0.0325 -0.4800
 7458TIP3    H138946   2.726   1.928   0.673  0.5378 -0.4437 -1.1418
 7458TIP3    H238947   2.787   2.066   0.655 -0.3226  0.0367 -0.4555
 7459TIP3   OH238948   0.244   0.576   6.812  0.5955  0.2995 -0.0484
 7459TIP3    H138949   0.333   0.546   6.791  0.1831 -0.8993 -0.2031
 7459TIP3    H238950   0.224   0.534   6.896 -0.1468 -0.1750 -0.4531
 7460TIP3   OH238951   4.819   0.194   2.026 -0.4359 -0.1135  0.7449
 7460TIP3    H138952   4.889   0.144   2.069 -0.3351 -0.0817  0.6201
 7460TIP3    H238953   4.859   0.226   1.946 -0.6046 -0.1238  0.6554
 7461TIP3   OH238954   5.509   0.591   7.094 -0.3298 -0.3581  0.0520
 7461TIP3    H138955   5.523   0.546   7.011  0.3640 -1.6265  0.8262
 7461TIP3    H238956   5.590   0.639   7.110  0.3386 -1.7228  0.9336
 7462TIP3   OH238957   6.155   3.522   1.227 -0.0977 -0.3929  0.0248
 7462TIP3    H138958   6.100   3.444   1.226  0.6540 -0.9394  0.3156
 7462TIP3    H238959   6.166   3.543   1.320 -0.1190 -0.0616 -0.0440
 7463TIP3   OH238960   1.903   4.041   1.400 -0.0413  0.2165  0.0471
 7463TIP3    H138961   1.897   4.106   1.329 -1.8731  2.2260  1.8952
 7463TIP3    H238962   1.954   4.085   1.468  0.7253 -1.2505  0.4687
 7464TIP3   OH238963   3.146   1.256   7.506  0.1820 -0.6383 -0.2214
 7464TIP3    H138964   3.132   1.332   7.449  1.1055  0.0310  0.3982
 7464TIP3    H238965   3.068   1.202   7.494  0.0238 -0.1558 -1.5447
 7465TIP3   OH238966   4.251   5.983   7.158 -0.1360 -0.2006  0.4732
 7465TIP3    H138967   4.334   5.975   7.204 -0.5446  0.6703  1.4069
 7465TIP3    H238968   4.252   6.072   7.123 -0.7511 -0.1253  0.6459
 7466TIP3   OH238969   5.202   2.529   6.746 -0.1260 -0.3663  0.7215
 7466TIP3    H138970   5.113   2.529   6.780 -0.3853 -1.8992  0.1173
 7466TIP3    H238971   5.201   2.464   6.675  1.1886  0.4013 -0.0509
 7467TIP3   OH238972   1.335   5.216   1.260  0.2695  0.6011 -0.5021
 7467TIP3    H138973   1.375   5.152   1.319 -2.1843  0.2312  0.8871
 7467TIP3    H238974   1.265   5.167   1.216  0.3161  1.5861 -1.7108
 7468TIP3   OH238975   5.414   2.989   0.185 -0.0593 -0.1404 -0.4808
 7468TIP3    H138976   5.429   3.053   0.115 -2.5540  1.7392  0.5472
 7468TIP3    H238977   5.327   2.953   0.166 -0.0654 -0.8314  0.7517
 7469TIP3   OH238978   0.014   4.613   0.805  0.1859  0.2575  0.8035
 7469TIP3    H138979  -0.032   4.614   0.721  1.2780 -1.5325  0.1286
 7469TIP3    H238980   0.026   4.706   0.827 -0.3315  0.7571 -0.8889
 7470TIP3   OH238981   1.374   1.023   9.206  0.4798  0.3744 -0.1048
 7470TIP3    H138982   1.408   1.045   9.292  0.5269 -2.2940  0.6732
 7470TIP3    H238983   1.389   0.928   9.198 -1.2252  0.1955 -2.2618
 7471TIP3   OH238984   5.494   1.648   7.115 -0.5496 -0.5933  0.4795
 7471TIP3    H138985   5.544   1.567   7.120 -0.8594 -0.8251 -0.1238
 7471TIP3    H238986   5.491   1.680   7.205  0.6935 -0.5719  0.5249
 7472TIP3   OH238987   0.491   5.150   8.970 -0.1587  0.3136 -0.4524
 7472TIP3    H138988   0.585   5.133   8.958 -0.7419 -2.0821 -2.2103
 7472TIP3    H238989   0.455   5.067   8.999 -1.5946  1.5863  1.7562
 7473TIP3   OH238990   5.469   5.789   2.107  0.0136 -0.1982 -0.2754
 7473TIP3    H138991   5.454   5.872   2.060 -2.1050  0.5538  1.5606
 7473TIP3    H238992   5.385   5.744   2.103  0.5165 -1.2542  0.6319
 7474TIP3   OH238993   2.569   1.132   2.305 -0.0711  0.1270  0.1161
 7474TIP3    H138994   2.548   1.225   2.297 -1.2868 -0.2541 -1.5932
 7474TIP3    H238995   2.491   1.092   2.342  0.0323 -0.3705 -0.1892
 7475TIP3   OH238996   4.694   4.766   1.407 -0.1089  0.1695 -0.0587
 7475TIP3    H138997   4.746   4.818   1.346  0.9696 -1.2210 -0.3905
 7475TIP3    H238998   4.692   4.818   1.487  0.0246  1.1874 -0.6947
 7476TIP3   OH238999   1.615   0.811   7.825  0.5551 -0.1069 -0.2229
 7476TIP3    H139000   1.564   0.768   7.756 -0.7158 -0.6951  1.0388
 7476TIP3    H239001   1.554   0.874   7.864  1.4285  0.5935  0.0319
 7477TIP3   OH239002   2.774   1.209   0.071  0.1382  0.4653 -0.0427
 7477TIP3    H139003   2.709   1.147   0.104  1.3732 -1.9186 -1.8057
 7477TIP3    H239004   2.722   1.279   0.032 -1.3099  0.4324  1.6852
 7478TIP3   OH239005   3.945   2.152   1.014  0.4948  0.1538  0.2273
 7478TIP3    H139006   3.888   2.079   0.990  1.4396 -0.4152 -0.3540
 7478TIP3    H239007   3.915   2.225   0.959  1.2410 -0.5425 -1.1573
 7479TIP3   OH239008   3.364   2.317   8.910  0.1149 -0.1573 -0.0387
 7479TIP3    H139009   3.421   2.278   8.843  0.4414 -0.4806  0.4266
 7479TIP3    H239010   3.283   2.335   8.863 -0.5584 -2.6343  0.0146
 7480TIP3   OH239011   0.313   2.055   8.732  0.1963 -0.3007 -0.1672
 7480TIP3    H139012   0.342   2.032   8.820 -0.6808 -0.9500 -0.0365
 7480TIP3    H239013   0.317   1.973   8.683 -1.0378 -0.3383 -0.2352
 7481TIP3   OH239014   6.153   0.554   8.811  0.4441 -0.5301 -0.0006
 7481TIP3    H139015   6.187   0.643   8.812 -2.4003  0.7732 -3.1230
 7481TIP3    H239016   6.207   0.508   8.747  1.5530 -0.9841  1.2078
 7482TIP3   OH239017   2.880   6.110   7.563 -0.5257 -0.3311 -0.1918
 7482TIP3    H139018   2.858   6.022   7.593 -1.1930 -0.2412 -0.3963
 7482TIP3    H239019   2.832   6.120   7.481 -1.0713  0.4910  0.2037
 7483TIP3   OH239020   2.264   4.336   9.091  0.4052  0.2694 -0.2472
 7483TIP3    H139021   2.330   4.274   9.061 -0.6989 -1.0005 -0.1766
 7483TIP3    H239022   2.299   4.422   9.068  1.4479 -0.4350 -1.4311
 7484TIP3   OH239023   6.055   5.192   8.099 -0.0360 -0.2627  0.6269
 7484TIP3    H139024   6.132   5.232   8.141  0.0347 -0.9652  1.1812
 7484TIP3    H239025   5.980   5.238   8.136 -0.0606 -1.7664  2.5990
 7485TIP3   OH239026   1.663   5.662   2.169 -0.5903 -0.0706 -0.4606
 7485TIP3    H139027   1.676   5.581   2.119  0.7649  0.2188 -0.5891
 7485TIP3    H239028   1.663   5.634   2.260 -0.4914 -0.2634 -0.5193
 7486TIP3   OH239029   1.415   4.082   8.438 -0.0164 -0.2826 -0.1448
 7486TIP3    H139030   1.349   4.144   8.467 -0.3458 -0.2425 -0.9360
 7486TIP3    H239031   1.497   4.113   8.476 -0.5526 -0.7505  1.4664
 7487TIP3   OH239032   5.763   1.739   7.848  0.2114  0.3092  0.6933
 7487TIP3    H139033   5.825   1.673   7.878  0.0859  0.6788  1.7928
 7487TIP3    H239034   5.777   1.743   7.753  1.4542 -0.0240  0.8488
 7488TIP3   OH239035   6.364   4.429   0.096 -0.4995  0.8243 -1.0412
 7488TIP3    H139036   6.274   4.401   0.113 -0.1574 -1.9192 -2.9742
 7488TIP3    H239037   6.358   4.477   0.013 -0.0857 -0.6713 -1.9882
 7489TIP3   OH239038   0.249   2.148   1.279  0.2617 -0.0521  0.2554
 7489TIP3    H139039   0.160   2.184   1.283 -0.1721 -1.0495 -0.2819
 7489TIP3    H239040   0.280   2.152   1.370 -0.4415  0.0152  0.4971
 7490TIP3   OH239041   2.087   6.045   7.999 -0.0813 -0.2233  0.2660
 7490TIP3    H139042   2.029   6.092   7.940 -1.6744 -1.6414  0.6124
 7490TIP3    H239043   2.069   6.083   8.085 -0.3774 -0.5422  0.3468
 7491TIP3   OH239044   3.661   1.177   2.612 -0.0531  0.1359  0.7210
 7491TIP3    H139045   3.667   1.218   2.526 -0.1857 -1.1653  0.0669
 7491TIP3    H239046   3.724   1.225   2.666 -0.9526  1.8564  0.2992
 7492TIP3   OH239047   4.020   2.539   8.468 -0.3912  0.3497  0.2274
 7492TIP3    H139048   4.044   2.466   8.524 -0.7411 -0.1344 -0.2536
 7492TIP3    H239049   4.104   2.576   8.439 -0.0779  2.1841  3.0235
 7493TIP3   OH239050   5.950   1.341   1.773 -0.2653 -0.7968  0.6498
 7493TIP3    H139051   6.004   1.262   1.778  0.4608 -0.3527  0.1991
 7493TIP3    H239052   5.973   1.391   1.851  1.0139  0.0024 -0.1908
 7494TIP3   OH239053   2.250   0.928   8.074  0.8187 -0.2879  0.5587
 7494TIP3    H139054   2.266   0.839   8.106  1.8223 -0.0473  0.7418
 7494TIP3    H239055   2.282   0.985   8.143  2.9644  0.2339 -0.7608
 7495TIP3   OH239056   1.008   6.376   1.645  0.0968  0.0790  0.1909
 7495TIP3    H139057   1.089   6.407   1.605  0.0933  1.0121  0.8859
 7495TIP3    H239058   1.037   6.305   1.703  0.2021 -0.6986 -0.7813
 7496TIP3   OH239059   3.156   5.857   0.900 -0.5517 -0.3963 -0.0237
 7496TIP3    H139060   3.216   5.925   0.929 -1.8322  1.2120 -0.9837
 7496TIP3    H239061   3.078   5.868   0.954 -0.5012 -1.6206  0.3341
 7497TIP3   OH239062   3.300   2.292   7.539  0.0016  0.5609 -0.4709
 7497TIP3    H139063   3.205   2.289   7.524 -0.0110 -1.2256 -0.2325
 7497TIP3    H239064   3.309   2.314   7.632 -0.0975  2.8474 -0.9513
 7498TIP3   OH239065   3.178   4.002   0.492  0.6046  0.1293 -0.4407
 7498TIP3    H139066   3.263   3.963   0.511  0.3309 -0.9786 -1.3984
 7498TIP3    H239067   3.114   3.934   0.513  0.0935  0.1593 -1.7770
 7499TIP3   OH239068   6.248   5.778   7.029  0.3113  0.1523  0.3485
 7499TIP3    H139069   6.217   5.810   7.114 -0.6395 -1.5726  0.6995
 7499TIP3    H239070   6.334   5.818   7.019 -0.2466  1.6825  1.3576
 7500TIP3   OH239071   2.419   3.919   6.820 -0.1057  0.6074 -0.7373
 7500TIP3    H139072   2.345   3.964   6.861  0.8701  1.0543  0.5637
 7500TIP3    H239073   2.387   3.830   6.804 -1.0861  0.9358 -0.6839
 7501TIP3   OH239074   6.399   0.207   0.797  0.2961  0.1038 -0.5321
 7501TIP3    H139075   6.478   0.262   0.805 -1.0858  2.6816 -2.7407
 7501TIP3    H239076   6.430   0.127   0.756  1.8511  0.9209 -1.0487
 7502TIP3   OH239077   4.839   3.288   8.551 -0.4078  0.4310 -0.4138
 7502TIP3    H139078   4.917   3.343   8.541 -1.5898  1.8718 -2.3692
 7502TIP3    H239079   4.867   3.216   8.608  2.5048  0.5559 -1.5576
 7503TIP3   OH239080   3.174   6.272   2.861  0.0117 -0.6352  0.1620
 7503TIP3    H139081   3.089   6.235   2.838  0.2477 -0.8291 -0.4280
 7503TIP3    H239082   3.169   6.363   2.835  0.6200 -1.0809 -1.6649
 7504TIP3   OH239083   0.581   2.046   7.098  0.3534  0.4281 -0.3599
 7504TIP3    H139084   0.526   1.976   7.133  0.0036 -0.2971 -2.2497
 7504TIP3    H239085   0.666   2.034   7.142  0.5049 -1.6079 -1.0900
 7505TIP3   OH239086   4.712   1.858   0.172 -0.1714  0.2812 -0.2832
 7505TIP3    H139087   4.793   1.902   0.197  0.0720  0.8769 -1.9571
 7505TIP3    H239088   4.730   1.765   0.186  0.9073  0.3827 -0.8660
 7506TIP3   OH239089   5.289   1.721   0.350 -0.4983 -0.8371 -0.1826
 7506TIP3    H139090   5.324   1.777   0.281 -1.3965 -0.1196 -0.0806
 7506TIP3    H239091   5.365   1.673   0.384  0.9802  2.6723  1.9651
 7507TIP3   OH239092   2.091   1.063   6.442 -0.2119  0.1412 -0.6275
 7507TIP3    H139093   2.117   1.034   6.354  0.4479  1.7808 -0.9995
 7507TIP3    H239094   1.995   1.064   6.439 -0.2293 -0.8520 -0.9591
 7508TIP3   OH239095   1.006   1.434   1.552  0.0592  0.1871 -0.0894
 7508TIP3    H139096   0.992   1.426   1.646  0.6830  0.9468  0.0796
 7508TIP3    H239097   1.077   1.373   1.533  1.7603  1.9312  0.4166
 7509TIP3   OH239098   3.072   3.287   1.993  0.5131  0.0070  0.0112
 7509TIP3    H139099   3.085   3.344   1.917  3.7716 -0.8130 -0.1982
 7509TIP3    H239100   3.116   3.332   2.065 -0.6138 -0.2743  0.9025
 7510TIP3   OH239101   5.756   2.079   8.705  0.0611 -0.1661  0.6739
 7510TIP3    H139102   5.841   2.055   8.741  0.3641  1.6461  1.2915
 7510TIP3    H239103   5.755   2.041   8.617  1.3857 -0.4787  0.7767
 7511TIP3   OH239104   5.940   5.557   2.809  0.1435 -0.0396  0.0926
 7511TIP3    H139105   5.963   5.647   2.833 -0.7223 -0.1679  1.5665
 7511TIP3    H239106   5.859   5.566   2.759 -0.4615 -0.0233  1.0370
 7512TIP3   OH239107   3.741   0.151   2.041 -0.2967 -0.0518 -0.1823
 7512TIP3    H139108   3.659   0.133   2.088  0.3212 -1.8521  0.2802
 7512TIP3    H239109   3.795   0.198   2.104 -0.1512 -0.8423  0.2884
 7513TIP3   OH239110   5.720   1.231   9.144  0.5138  0.1986  0.4213
 7513TIP3    H139111   5.693   1.176   9.217 -0.4656  0.9769  0.6672
 7513TIP3    H239112   5.639   1.258   9.102  0.5976  4.0448  2.2349
 7514TIP3   OH239113   6.226   2.145   7.341  0.1310 -0.1359  0.1080
 7514TIP3    H139114   6.193   2.184   7.421 -0.0829 -0.7434  0.3253
 7514TIP3    H239115   6.321   2.156   7.346  0.0822  0.2251  0.2301
 7515TIP3   OH239116   5.318   1.476   0.120 -0.7142 -0.1475  0.8983
 7515TIP3    H139117   5.242   1.449   0.172 -1.8195 -2.0886 -1.5366
 7515TIP3    H239118   5.388   1.417   0.149 -1.4463 -1.5402 -0.0572
 7516TIP3   OH239119   3.161   1.709   0.375 -0.3584 -0.2974 -0.5228
 7516TIP3    H139120   3.140   1.622   0.341 -0.6459 -0.7081  0.6488
 7516TIP3    H239121   3.248   1.728   0.340  0.1552 -1.5177  0.0397
 7517TIP3   OH239122   2.682   0.181   7.578 -0.2853 -0.0151  0.0057
 7517TIP3    H139123   2.739   0.238   7.629 -0.4082  0.4268 -0.3441
 7517TIP3    H239124   2.740   0.114   7.543  0.0067  0.3746 -0.2668
 7518TIP3   OH239125   5.148   4.689   8.011 -0.0594  0.1914 -0.0077
 7518TIP3    H139126   5.141   4.785   8.016 -0.8103  0.0836  2.1163
 7518TIP3    H239127   5.240   4.673   7.990  0.4015  1.3737  0.9946
 7519TIP3   OH239128   3.650   2.001   0.528  0.4046 -0.0613  0.0927
 7519TIP3    H139129   3.593   1.928   0.553  0.2657 -0.1235 -0.3867
 7519TIP3    H239130   3.619   2.027   0.441  0.9390  0.0717 -0.0649
 7520TIP3   OH239131   1.440   5.241   7.315  0.1006  0.3192  0.3704
 7520TIP3    H139132   1.515   5.213   7.262  0.9631 -0.1468  1.7837
 7520TIP3    H239133   1.396   5.307   7.261  0.7474 -0.3654 -1.0475
 7521TIP3   OH239134   5.029   5.625   2.929 -0.5495 -0.1034 -0.2477
 7521TIP3    H139135   5.121   5.610   2.950 -0.1511  2.2170 -0.1081
 7521TIP3    H239136   5.002   5.546   2.882  1.9282 -0.2006 -1.6508
 7522TIP3   OH239137   2.410   1.716   2.414 -0.2902 -0.0760 -0.3695
 7522TIP3    H139138   2.348   1.729   2.343  0.9474 -1.7878 -1.8551
 7522TIP3    H239139   2.438   1.804   2.439 -0.5039  0.5670 -2.2653
 7523TIP3   OH239140   0.777   0.431   7.090 -0.5386  0.1317  0.5728
 7523TIP3    H139141   0.857   0.479   7.110 -0.0581 -0.8241  0.9852
 7523TIP3    H239142   0.786   0.404   6.999 -1.2420  1.5975  0.0140
 7524TIP3   OH239143   1.757   6.140   1.726  0.0187 -0.2608 -0.2320
 7524TIP3    H139144   1.758   6.092   1.643 -0.2058  1.4013 -1.2532
 7524TIP3    H239145   1.666   6.134   1.756 -0.1271 -0.0902 -0.6204
 7525TIP3   OH239146   1.874   0.239   0.650  0.2042 -0.4972 -0.5733
 7525TIP3    H139147   1.872   0.296   0.573 -1.0207  0.4828  0.1687
 7525TIP3    H239148   1.953   0.265   0.697 -0.8469  1.3099  0.2671
 7526TIP3   OH239149   1.242   3.724   7.693 -0.3766  0.3268 -0.0844
 7526TIP3    H139150   1.277   3.755   7.776 -0.7057  1.1289 -0.2317
 7526TIP3    H239151   1.247   3.628   7.699 -0.6904  0.3608  0.9826
 7527TIP3   OH239152   2.015   4.558   9.066  0.2835  0.0574 -0.1856
 7527TIP3    H139153   1.966   4.627   9.109  2.1658  1.0096  0.5469
 7527TIP3    H239154   2.021   4.488   9.132 -1.4931 -0.8031 -0.8748
 7528TIP3   OH239155   4.700   5.085   1.867 -0.8511  0.4235  0.5020
 7528TIP3    H139156   4.756   5.056   1.939  0.7935 -1.9907 -1.5787
 7528TIP3    H239157   4.612   5.061   1.895 -0.4860  1.0121  2.3299
 7529TIP3   OH239158   3.184   5.744   1.862  0.0925  1.2889  0.2220
 7529TIP3    H139159   3.266   5.719   1.820 -1.1128  0.2021 -1.6383
 7529TIP3    H239160   3.128   5.668   1.852 -1.2307  2.0805  1.2514
 7530TIP3   OH239161   0.433   4.527   1.802 -0.2410 -0.2723 -0.1511
 7530TIP3    H139162   0.347   4.487   1.806  0.6245 -2.1995  0.1572
 7530TIP3    H239163   0.421   4.614   1.841 -1.9683 -0.5845  0.0791
 7531TIP3   OH239164   3.952   3.112   9.168  0.7629  0.4299  0.2485
 7531TIP3    H139165   3.925   3.176   9.102 -0.5570 -1.1063 -0.7778
 7531TIP3    H239166   3.994   3.042   9.118 -2.2040 -1.8260  0.6213
 7532TIP3   OH239167   4.109   1.817   9.093  0.0957 -0.4571  0.4008
 7532TIP3    H139168   4.103   1.899   9.044 -0.1398 -0.2976  0.6939
 7532TIP3    H239169   4.025   1.773   9.077 -0.4875  0.1485  1.6255
 7533TIP3   OH239170   4.857   0.070   7.832  0.0664 -0.1734 -0.1835
 7533TIP3    H139171   4.925   0.012   7.866  1.0433  0.6508 -0.6396
 7533TIP3    H239172   4.775   0.030   7.858  0.7254 -1.4104  0.0546
 7534TIP3   OH239173   4.497   1.508   8.461 -0.1024  0.0639  0.2904
 7534TIP3    H139174   4.576   1.558   8.480 -1.8504  2.6182  1.4093
 7534TIP3    H239175   4.433   1.539   8.525 -2.7246 -0.0833 -2.0632
 7535TIP3   OH239176   2.558   0.348   7.367  0.1417  0.4321 -0.0401
 7535TIP3    H139177   2.581   0.278   7.306  0.9481  0.8771 -0.2524
 7535TIP3    H239178   2.607   0.327   7.447 -1.9888 -0.9375  1.0024
 7536TIP3   OH239179   3.448   3.999   8.570  0.6434 -0.3141 -0.3657
 7536TIP3    H139180   3.357   4.014   8.597  0.5072  0.6420 -1.3114
 7536TIP3    H239181   3.460   4.054   8.493  2.1461 -0.1525 -0.0457
 7537TIP3   OH239182   2.774   5.226   8.733 -0.8783  0.1027  0.1199
 7537TIP3    H139183   2.809   5.140   8.756 -1.4852  0.4497  2.7556
 7537TIP3    H239184   2.844   5.287   8.755 -0.8767  0.3757 -0.6130
 7538TIP3   OH239185   4.312   4.008   1.699  0.0999 -0.6781 -0.0646
 7538TIP3    H139186   4.382   3.950   1.673  0.3458 -0.0738 -0.7900
 7538TIP3    H239187   4.256   4.015   1.622 -0.9306 -1.3931  0.5988
 7539TIP3   OH239188   4.031   0.507   2.310  0.3016  0.0158 -0.3082
 7539TIP3    H139189   4.095   0.438   2.294 -0.0028 -0.1891 -0.6865
 7539TIP3    H239190   3.981   0.512   2.228  1.3507  1.7924 -0.9017
 7540TIP3   OH239191   3.078   3.585   0.023  0.2382  0.0432 -0.1985
 7540TIP3    H139192   3.114   3.587   0.112  1.1058  1.4342 -0.5540
 7540TIP3    H239193   2.987   3.557   0.036  0.2012  0.6920  1.1940
 7541TIP3   OH239194   3.082   3.155   7.513 -0.5326  0.1974 -0.0937
 7541TIP3    H139195   3.047   3.073   7.547  1.0312 -0.3977  0.1636
 7541TIP3    H239196   3.005   3.204   7.485 -1.4538 -2.2827 -2.4163
 7542TIP3   OH239197   1.955   4.054   2.078 -0.1751  0.5168  0.1799
 7542TIP3    H139198   1.915   3.967   2.089  0.2244  0.2216 -0.5971
 7542TIP3    H239199   2.049   4.036   2.077 -0.0935  0.9658  0.0042
 7543TIP3   OH239200   3.684   2.554   6.975 -0.1793  0.5034  0.2112
 7543TIP3    H139201   3.684   2.500   6.896 -1.5402  1.4350 -0.4775
 7543TIP3    H239202   3.634   2.504   7.039  0.5450 -0.0573  0.3477
 7544TIP3   OH239203   1.785   4.840   6.744 -0.1039  0.1264 -0.1536
 7544TIP3    H139204   1.830   4.908   6.794  0.6118  0.3836 -1.1105
 7544TIP3    H239205   1.776   4.768   6.805  0.7751  0.4189  0.3482
 7545TIP3   OH239206   5.124   3.266   9.113  0.2997  0.6523  0.3826
 7545TIP3    H139207   5.126   3.201   9.183 -0.7424 -1.1104 -1.1368
 7545TIP3    H239208   5.036   3.304   9.118 -0.4201 -0.7313 -0.9856
 7546TIP3   OH239209   6.301   4.896   2.081  0.1523 -0.0636 -0.2877
 7546TIP3    H139210   6.348   4.977   2.063  0.0365  0.0426 -0.1150
 7546TIP3    H239211   6.297   4.851   1.997  0.3965  0.0140 -0.3417
 7547TIP3   OH239212   4.514   5.185   7.216  0.5113 -0.2283 -0.1143
 7547TIP3    H139213   4.436   5.197   7.271  0.2005  0.1780 -0.6289
 7547TIP3    H239214   4.557   5.107   7.252 -0.0760 -0.3981  0.2453
 7548TIP3   OH239215   4.261   6.051   2.068  0.0568  0.0635 -0.0254
 7548TIP3    H139216   4.294   5.995   1.998  1.4405  0.6413  0.1303
 7548TIP3    H239217   4.168   6.028   2.076 -0.0736 -0.1996 -1.8644
 7549TIP3   OH239218   6.065   1.493   1.991 -0.1172 -0.2934 -0.2023
 7549TIP3    H139219   6.123   1.561   1.958 -2.5081  3.3183  2.2606
 7549TIP3    H239220   6.048   1.518   2.082 -2.5639 -3.2552  0.3224
 7550TIP3   OH239221   0.203   1.777   8.259 -0.5702 -0.0884 -0.2659
 7550TIP3    H139222   0.140   1.718   8.220 -1.6156 -1.4241  3.0783
 7550TIP3    H239223   0.151   1.848   8.296 -0.1807 -0.8451  1.9246
 7551TIP3   OH239224   0.381   5.887   1.978  0.3567  0.2152 -0.2330
 7551TIP3    H139225   0.466   5.909   1.940 -0.1152 -0.2711 -1.6633
 7551TIP3    H239226   0.338   5.971   1.992  0.3089  0.4091 -1.4243
 7552TIP3   OH239227   5.463   4.345   3.426  0.2658  0.2048  0.0876
 7552TIP3    H139228   5.417   4.426   3.404  0.5681  0.0977 -1.0058
 7552TIP3    H239229   5.555   4.365   3.409  0.6965  0.4693  2.4038
 7553TIP3   OH239230   1.074   0.249   7.464 -0.7991  0.1917  0.0605
 7553TIP3    H139231   0.988   0.246   7.422 -1.0102 -0.3861  0.5236
 7553TIP3    H239232   1.065   0.193   7.541  0.2850 -0.6954 -0.4226
 7554TIP3   OH239233   6.286   1.784   1.012  0.5512 -0.2105  0.0313
 7554TIP3    H139234   6.292   1.700   0.967 -0.0713  0.0632 -0.5608
 7554TIP3    H239235   6.194   1.810   1.006  0.4906 -0.0484  1.2504
 7555TIP3   OH239236   2.923   3.504   8.623 -0.4773 -0.3659 -0.9200
 7555TIP3    H139237   2.862   3.575   8.644 -1.4109 -1.9273  2.3832
 7555TIP3    H239238   3.010   3.540   8.643 -0.9809 -0.2075  1.2691
 7556TIP3   OH239239   5.436   4.365   7.040  0.2412 -0.0231  0.7983
 7556TIP3    H139240   5.444   4.326   6.953  1.8201 -1.6765  1.6241
 7556TIP3    H239241   5.346   4.397   7.044 -0.9176 -2.8411 -0.2827
 7557TIP3   OH239242   1.154   5.235   1.779 -0.5042 -0.1246 -0.4370
 7557TIP3    H139243   1.130   5.206   1.691  0.7135  1.3560 -1.2878
 7557TIP3    H239244   1.249   5.249   1.775 -0.8602  3.2785  0.0397
 7558TIP3   OH239245   5.662   3.521   7.459  0.0634 -0.1442 -0.2083
 7558TIP3    H139246   5.611   3.525   7.540  0.0287 -0.1582 -0.2297
 7558TIP3    H239247   5.670   3.612   7.431 -2.6342 -0.3336 -1.9046
 7559TIP3   OH239248   5.458   4.296   0.007  0.1528  0.7623 -0.4790
 7559TIP3    H139249   5.406   4.216   0.002  1.5542 -0.2352  0.4483
 7559TIP3    H239250   5.405   4.355   0.061 -0.8085  0.4126 -1.0164
 7560TIP3   OH239251   6.209   6.040   8.794 -0.5275  0.6590 -0.3289
 7560TIP3    H139252   6.187   5.973   8.858  1.5910 -0.1280 -0.3675
 7560TIP3    H239253   6.144   6.109   8.809 -0.7566  0.0343  1.9055
 7561TIP3   OH239254   4.157   2.075   0.438 -0.5886  0.6005 -0.3511
 7561TIP3    H139255   4.183   1.988   0.469 -1.1991  0.3136 -0.6342
 7561TIP3    H239256   4.067   2.064   0.408 -0.9906  1.5393  0.4425
 7562TIP3   OH239257   3.815   0.408   3.037  0.4899  0.0791 -0.3858
 7562TIP3    H139258   3.884   0.474   3.046  0.9551 -0.3705 -0.6061
 7562TIP3    H239259   3.736   0.458   3.017  0.1657  0.8682  2.3712
 7563TIP3   OH239260   3.251   4.400   7.411  0.0255 -0.4533  0.2404
 7563TIP3    H139261   3.261   4.307   7.392 -1.2659 -0.5623  0.0482
 7563TIP3    H239262   3.298   4.444   7.340 -1.8037 -0.9317 -1.3621
 7564TIP3   OH239263   4.467   0.953   9.166  0.0283  0.0108 -0.1371
 7564TIP3    H139264   4.449   0.912   9.081 -0.9473  0.9392 -0.4021
 7564TIP3    H239265   4.455   0.882   9.229 -0.4157 -0.4120 -0.6811
 7565TIP3   OH239266   2.744   5.161   8.020  0.5493  0.2227 -0.0954
 7565TIP3    H139267   2.795   5.240   8.007  1.3546 -0.4954 -1.5485
 7565TIP3    H239268   2.757   5.138   8.112 -0.7869  2.4727  0.7352
 7566TIP3   OH239269   4.708   3.080   1.970  0.4557 -0.1704 -0.2814
 7566TIP3    H139270   4.634   3.032   2.007  0.8352 -1.8768 -1.6112
 7566TIP3    H239271   4.756   3.015   1.919  1.2098  1.5583 -1.9124
 7567TIP3   OH239272   1.835   6.238   6.582 -0.6423  0.0433 -0.0294
 7567TIP3    H139273   1.784   6.226   6.502 -3.0345  1.3933  1.1807
 7567TIP3    H239274   1.908   6.294   6.556 -0.9720 -0.1328 -1.3968
 7568TIP3   OH239275   0.513   5.204   2.610 -0.6976 -0.3455 -0.2725
 7568TIP3    H139276   0.585   5.196   2.672 -0.1929  1.2108 -0.6221
 7568TIP3    H239277   0.451   5.263   2.653 -0.0748  1.2268 -1.4383
 7569TIP3   OH239278   5.611   1.714   1.360 -0.2058 -0.4893 -0.2767
 7569TIP3    H139279   5.597   1.688   1.269 -1.8966  0.2595 -0.2751
 7569TIP3    H239280   5.679   1.782   1.356 -0.8974  0.1782 -1.1120
 7570TIP3   OH239281   0.504   4.330   0.153  0.5694 -0.0354  0.1107
 7570TIP3    H139282   0.413   4.300   0.158  1.2012 -2.5560 -1.5865
 7570TIP3    H239283   0.503   4.417   0.193 -2.4046 -0.3373  0.9153
 7571TIP3   OH239284   2.348   2.373   0.591  0.0988 -0.4330  0.1811
 7571TIP3    H139285   2.304   2.293   0.620  1.9827 -1.0610  1.4575
 7571TIP3    H239286   2.316   2.441   0.651 -1.2898 -0.2444 -0.7294
 7572TIP3   OH239287   3.691   1.884   2.718 -0.1154  0.0388 -0.3869
 7572TIP3    H139288   3.618   1.822   2.713 -0.3308  0.2495  0.1316
 7572TIP3    H239289   3.675   1.934   2.798  1.6801 -1.2640  0.8531
 7573TIP3   OH239290   2.940   6.010   0.670  0.5694 -0.2313  0.0724
 7573TIP3    H139291   2.999   5.945   0.634  1.6170  0.8239 -0.1943
 7573TIP3    H239292   2.995   6.065   0.726  0.4061  2.0829 -1.8286
 7574TIP3   OH239293   0.408   4.945   1.714 -0.1002 -1.0719  0.4345
 7574TIP3    H139294   0.364   5.022   1.678 -0.4201 -0.7684  1.4341
 7574TIP3    H239295   0.418   4.886   1.640 -1.7304 -0.9255  0.0625
 7575TIP3   OH239296   0.322   4.976   8.307 -0.4184 -0.2702 -0.1200
 7575TIP3    H139297   0.288   4.888   8.292 -0.6563 -0.2462  0.2804
 7575TIP3    H239298   0.269   5.032   8.250  1.3062 -0.6520 -2.2796
 7576TIP3   OH239299   5.476   4.145   2.092 -0.2458  0.6539  0.4452
 7576TIP3    H139300   5.452   4.113   2.179 -0.1182  0.5818  0.4535
 7576TIP3    H239301   5.412   4.105   2.034  0.6278 -0.5714  0.3020
 7577TIP3   OH239302   5.680   3.289   8.402 -0.7703  0.3367 -0.5098
 7577TIP3    H139303   5.643   3.208   8.438 -0.3915 -0.5473 -2.0075
 7577TIP3    H239304   5.687   3.348   8.477 -0.2099 -1.3370  0.8153
 7578TIP3   OH239305   2.636   5.636   7.621  0.5734 -0.6881  0.6186
 7578TIP3    H139306   2.720   5.619   7.578  1.8035  0.4306  2.4920
 7578TIP3    H239307   2.648   5.606   7.711 -1.2779 -1.1213  0.7645
 7579TIP3   OH239308   2.248   1.926   6.573 -0.9583  0.5271  0.3689
 7579TIP3    H139309   2.160   1.889   6.577 -0.9885  0.2567 -1.7116
 7579TIP3    H239310   2.306   1.850   6.570 -0.9187  0.5704 -2.0567
 7580TIP3   OH239311   3.614   1.444   7.965  0.2857 -0.0430  0.1761
 7580TIP3    H139312   3.552   1.412   7.900  1.4463 -0.2883 -0.8489
 7580TIP3    H239313   3.696   1.455   7.917  0.6199  1.9446  1.0802
 7581TIP3   OH239314   6.457   2.133   7.538 -0.0622  0.1754  0.0816
 7581TIP3    H139315   6.449   2.214   7.487  1.8767  1.3081  1.4313
 7581TIP3    H239316   6.408   2.150   7.619 -0.0852 -0.2073  0.1515
 7582TIP3   OH239317   0.716   2.117   8.278  0.3185 -0.0397 -0.0908
 7582TIP3    H139318   0.633   2.120   8.230  0.0264  0.0413  0.4118
 7582TIP3    H239319   0.748   2.207   8.276  0.4845 -0.1057 -0.4390
 7583TIP3   OH239320   6.169   4.329   0.440  0.4948 -0.5300 -0.2605
 7583TIP3    H139321   6.128   4.298   0.359  1.1008 -0.7626 -0.4868
 7583TIP3    H239322   6.241   4.385   0.411  0.9343 -0.8919  0.0982
 7584TIP3   OH239323   0.854   2.501   0.981 -0.7805 -0.4349 -0.2607
 7584TIP3    H139324   0.836   2.425   1.036  0.6070 -0.0879  0.7337
 7584TIP3    H239325   0.941   2.484   0.944 -0.3456  0.7623  0.1643
 7585TIP3   OH239326   2.694   5.902   1.896 -0.2277 -0.0737  0.3758
 7585TIP3    H139327   2.660   5.830   1.843 -1.9397  0.2009  1.0208
 7585TIP3    H239328   2.714   5.862   1.980  0.9514 -0.1978  0.0527
 7586TIP3   OH239329   2.513   4.423   7.306 -0.4433 -1.0505 -1.0729
 7586TIP3    H139330   2.423   4.425   7.275 -0.8551 -0.1900  0.1178
 7586TIP3    H239331   2.562   4.385   7.233 -1.4646  0.2716 -2.5175
 7587TIP3   OH239332   2.454   4.140   9.076  0.1682  0.2981  0.3833
 7587TIP3    H139333   2.507   4.194   9.136 -0.9189  2.3602 -0.4029
 7587TIP3    H239334   2.407   4.080   9.134 -0.2819  1.7308  1.5802
 7588TIP3   OH239335   1.705   4.348   8.380  0.2206  0.3797  0.1283
 7588TIP3    H139336   1.693   4.279   8.444 -0.2272 -0.0407 -0.4025
 7588TIP3    H239337   1.740   4.422   8.430  0.1760 -0.0485  0.7925
 7589TIP3   OH239338   1.936   1.595   8.519 -0.3337  0.3514  0.0957
 7589TIP3    H139339   1.862   1.651   8.495 -0.8435  0.0056  0.8028
 7589TIP3    H239340   1.896   1.511   8.544  0.3298  0.0143  0.0637
 7590TIP3   OH239341   4.299   2.601   0.718 -0.5069 -0.0360 -0.5649
 7590TIP3    H139342   4.283   2.684   0.763 -1.7491 -0.3985 -0.3021
 7590TIP3    H239343   4.394   2.592   0.718 -0.3665  1.2731 -0.3933
 7591TIP3   OH239344   5.002   4.545   8.511  0.2614 -0.3814  0.4364
 7591TIP3    H139345   4.914   4.510   8.523  0.6283 -2.2126 -1.6525
 7591TIP3    H239346   5.061   4.480   8.549  0.8069 -0.2415 -0.1374
 7592TIP3   OH239347   3.510   2.698   8.646  0.0059 -0.1181 -0.9273
 7592TIP3    H139348   3.577   2.757   8.613  1.0056 -1.1796 -0.8582
 7592TIP3    H239349   3.430   2.722   8.598  0.7109  0.3823 -1.8717
 7593TIP3   OH239350   6.201   1.701   0.329  0.2148  0.6160 -0.1812
 7593TIP3    H139351   6.211   1.697   0.234  1.0509  0.0547 -0.0776
 7593TIP3    H239352   6.254   1.777   0.355  0.1146  0.6751 -0.1518
 7594TIP3   OH239353   1.051   6.197   6.051  0.7537  0.2438 -0.4138
 7594TIP3    H139354   1.084   6.263   5.989  2.2664  1.9716  2.0460
 7594TIP3    H239355   1.089   6.115   6.021  0.4968  0.8046 -2.4133
 7595TIP3   OH239356   4.238   1.806   8.597  0.0926  0.2635 -0.1941
 7595TIP3    H139357   4.242   1.795   8.502  0.1422 -1.4074 -0.0189
 7595TIP3    H239358   4.307   1.869   8.617  0.3537  0.3083 -1.2129
 7596TIP3   OH239359   1.468   0.255   6.238  0.5300  0.1878  0.2989
 7596TIP3    H139360   1.532   0.267   6.308  0.9990  1.9606 -0.3838
 7596TIP3    H239361   1.500   0.309   6.166 -0.7334 -0.4048 -0.7561
 7597TIP3   OH239362   5.158   5.242   2.158  0.1722  0.3658  0.6484
 7597TIP3    H139363   5.152   5.158   2.205 -1.4087 -0.0731 -0.2606
 7597TIP3    H239364   5.249   5.268   2.167  0.5668 -1.1741  1.4454
 7598TIP3   OH239365   1.386   0.412   2.978 -0.1946 -1.1038  0.3415
 7598TIP3    H139366   1.354   0.375   2.895  0.0716  0.5199 -0.5260
 7598TIP3    H239367   1.348   0.500   2.982  0.1894 -0.9718  1.7141
 7599TIP3   OH239368   0.960   1.755   9.184 -0.6554 -0.6219 -0.0211
 7599TIP3    H139369   0.874   1.721   9.158 -0.5849 -1.5515  0.8845
 7599TIP3    H239370   1.008   1.678   9.214  1.0667 -0.3753 -1.9040
 7600TIP3   OH239371   0.666   1.321   0.694 -0.5796 -0.2052  0.4635
 7600TIP3    H139372   0.712   1.246   0.658  1.9160  1.4794 -0.1433
 7600TIP3    H239373   0.624   1.363   0.619 -0.6095 -0.0995  0.5374
 7601TIP3   OH239374   5.624   2.334   7.163  0.5666 -0.4011 -1.1285
 7601TIP3    H139375   5.595   2.364   7.249  3.1146 -0.1687 -0.2931
 7601TIP3    H239376   5.567   2.380   7.102  0.0040  0.9866  0.3537
 7602TIP3   OH239377   5.657   1.495   8.143 -0.2101  0.3780  0.0240
 7602TIP3    H139378   5.600   1.445   8.201  1.3291  1.6036  2.7649
 7602TIP3    H239379   5.745   1.462   8.160  0.4071  1.4527 -0.8916
 7603TIP3   OH239380   0.452   4.518   2.116 -0.2276 -0.0827  0.2051
 7603TIP3    H139381   0.467   4.612   2.120 -0.4410  0.0958 -2.1333
 7603TIP3    H239382   0.427   4.501   2.025  0.8504 -2.5414  0.2934
 7604TIP3   OH239383   5.362   3.955   0.857  0.0475 -0.1423 -0.2888
 7604TIP3    H139384   5.304   4.001   0.918 -0.7548 -0.1055 -1.0528
 7604TIP3    H239385   5.438   4.012   0.847 -0.9169  1.0388 -1.1945
 7605TIP3   OH239386   0.503   5.518   2.573  0.4396 -0.4231 -0.1447
 7605TIP3    H139387   0.581   5.571   2.590  0.6297 -0.9719  0.7368
 7605TIP3    H239388   0.485   5.531   2.480 -1.7605  4.3134  0.6160
 7606TIP3   OH239389   5.936   1.274   7.688  0.2448  0.0704 -0.0374
 7606TIP3    H139390   5.960   1.187   7.720  1.5883 -0.6509 -2.6760
 7606TIP3    H239391   5.997   1.333   7.731  2.2978 -0.9090 -1.4485
 7607TIP3   OH239392   3.474   3.707   1.906 -0.1964 -0.2949 -0.5584
 7607TIP3    H139393   3.420   3.739   1.979 -0.5472  0.0987 -0.9884
 7607TIP3    H239394   3.420   3.718   1.829  0.8325  0.9856 -1.1379
 7608TIP3   OH239395   1.148   0.890   1.668  0.0146 -0.2777  0.7504
 7608TIP3    H139396   1.166   0.980   1.641  1.1750 -0.6518  0.2102
 7608TIP3    H239397   1.064   0.895   1.713 -1.0108  0.7372 -1.1274
 7609TIP3   OH239398   4.344   4.588   8.796  0.1445  0.4049 -0.7467
 7609TIP3    H139399   4.276   4.571   8.730  1.3676  1.0699 -2.2454
 7609TIP3    H239400   4.402   4.512   8.790 -0.0838  0.1658  0.0328
 7610TIP3   OH239401   1.703   3.163   8.881  0.3817 -0.2746  0.2010
 7610TIP3    H139402   1.792   3.157   8.848  0.4488 -0.7534  0.4672
 7610TIP3    H239403   1.706   3.120   8.967  0.0818  0.4419  0.5758
 7611TIP3   OH239404   6.262   3.128   8.136  0.2005 -0.5990 -0.3063
 7611TIP3    H139405   6.187   3.127   8.077  1.0355  0.6709 -1.4626
 7611TIP3    H239406   6.304   3.043   8.124 -1.4701 -1.6760  0.9956
 7612TIP3   OH239407   4.646   4.675   8.118  0.0710 -0.2532  0.2857
 7612TIP3    H139408   4.679   4.760   8.089 -0.6298  0.4523  1.4479
 7612TIP3    H239409   4.552   4.679   8.101  0.2537 -1.5128 -1.2833
 7613TIP3   OH239410   2.436   1.594   0.491 -0.2010 -0.1060 -0.2173
 7613TIP3    H139411   2.500   1.637   0.549 -0.7055  0.2798  0.0646
 7613TIP3    H239412   2.436   1.648   0.412 -0.6619  0.2908  0.0454
 7614TIP3   OH239413   3.941   1.190   8.650  0.7251 -0.1319  0.3461
 7614TIP3    H139414   3.890   1.253   8.700  1.4923  0.4092  0.4643
 7614TIP3    H239415   3.933   1.108   8.699  1.0530  0.2718  1.0811
 7615TIP3   OH239416   3.183   3.541   2.030  0.5554 -0.1497 -0.3322
 7615TIP3    H139417   3.210   3.560   2.120  1.1436  0.9473 -0.7112
 7615TIP3    H239418   3.260   3.501   1.990  0.4062 -0.3383 -0.4283
 7616TIP3   OH239419   2.277   0.570   2.344  0.4387  0.5477  0.0656
 7616TIP3    H139420   2.321   0.636   2.398 -0.1019  0.8011  0.1930
 7616TIP3    H239421   2.279   0.490   2.398  2.1556  0.1103 -0.5536
 7617TIP3   OH239422   5.122   1.479   1.520 -0.3887  0.0029 -0.4790
 7617TIP3    H139423   5.037   1.488   1.477  0.1316 -0.4943 -1.6586
 7617TIP3    H239424   5.184   1.521   1.460  0.2764 -0.1385  0.0948
 7618TIP3   OH239425   2.912   2.320   1.369  0.1317 -0.5952  0.4850
 7618TIP3    H139426   2.912   2.328   1.464 -1.3634  1.3691  0.3972
 7618TIP3    H239427   2.832   2.271   1.349  1.2296 -2.3803  0.2566
 7619TIP3   OH239428   2.970   2.343   2.932  0.6649  0.1491  0.4865
 7619TIP3    H139429   3.055   2.300   2.929 -0.2260 -1.7090 -1.5666
 7619TIP3    H239430   2.978   2.417   2.871  1.0234  0.4167  0.8602
 7620TIP3   OH239431   4.757   0.284   8.091 -0.2815  0.1491 -0.4324
 7620TIP3    H139432   4.841   0.330   8.097  0.2066 -0.8467  0.9259
 7620TIP3    H239433   4.720   0.312   8.007 -0.1632  3.2339  0.4366
 7621TIP3   OH239434   0.401   1.034   0.386 -0.5264  0.7359 -0.9856
 7621TIP3    H139435   0.346   1.097   0.432  1.1617  0.7935  1.1476
 7621TIP3    H239436   0.396   0.955   0.439  0.1172  0.2174 -1.6859
 7622TIP3   OH239437   1.063   2.384   7.721 -0.5258  0.4038 -0.0515
 7622TIP3    H139438   1.095   2.413   7.807 -1.1556  1.2420 -0.0849
 7622TIP3    H239439   1.119   2.429   7.658 -0.4988  0.3152 -0.0912
 7623TIP3   OH239440   3.623   1.572   0.646 -0.1155 -0.0126 -0.1319
 7623TIP3    H139441   3.660   1.612   0.724 -0.8187  3.5261 -1.4623
 7623TIP3    H239442   3.539   1.535   0.676  0.1538  0.2488  1.0016
 7624TIP3   OH239443   0.818   3.047   7.296  0.3853 -0.1948 -0.1265
 7624TIP3    H139444   0.898   3.098   7.312 -0.7800  2.0816 -1.0424
 7624TIP3    H239445   0.810   3.045   7.201 -1.1866  0.6068 -0.0457
 7625TIP3   OH239446   6.016   3.196   9.004  0.0090  0.2709 -0.6790
 7625TIP3    H139447   6.091   3.181   9.062 -0.7859  0.0084  0.3160
 7625TIP3    H239448   6.045   3.163   8.919  0.8408 -0.3090 -0.1930
 7626TIP3   OH239449   1.394   0.198   0.960  0.2017 -0.5592 -0.3658
 7626TIP3    H139450   1.408   0.112   0.999 -1.6028 -0.8824 -0.3606
 7626TIP3    H239451   1.311   0.191   0.915  0.5013  0.9035 -1.2163
 7627TIP3   OH239452   3.092   0.289   2.565  0.7576  0.0200 -0.4646
 7627TIP3    H139453   3.064   0.373   2.528  2.3191  0.2165 -1.2600
 7627TIP3    H239454   3.049   0.286   2.651  0.6961  1.6587 -0.3973
 7628TIP3   OH239455   4.110   4.431   2.397 -0.0562  0.1886  0.2005
 7628TIP3    H139456   4.129   4.422   2.490  0.5661 -0.7811 -0.0027
 7628TIP3    H239457   4.164   4.364   2.355 -1.9151 -0.8461 -0.6709
 7629TIP3   OH239458   0.325   2.700   9.383 -0.1669 -0.4656 -0.1393
 7629TIP3    H139459   0.404   2.726   9.336 -0.3835  0.8341  0.1814
 7629TIP3    H239460   0.263   2.675   9.314 -0.1255  0.3961 -0.4977
 7630TIP3   OH239461   3.455   2.192   2.077 -0.2549 -0.1882 -0.1918
 7630TIP3    H139462   3.483   2.109   2.116  0.4958 -0.1828 -0.7018
 7630TIP3    H239463   3.536   2.232   2.045  0.3769  3.1833  4.5318
 7631TIP3   OH239464   5.235   0.001   6.795 -0.2771 -0.1102 -0.1280
 7631TIP3    H139465   5.289   0.005   6.716 -0.0901  1.4665  0.0425
 7631TIP3    H239466   5.277   0.062   6.856 -1.0979 -0.4029  0.7607
 7632TIP3   OH239467   3.407   2.509   7.951  0.0052  0.3733 -0.0362
 7632TIP3    H139468   3.398   2.477   7.861  1.8948  3.0498 -1.3007
 7632TIP3    H239469   3.442   2.598   7.942 -0.0781  0.8849  3.3579
 7633TIP3   OH239470   4.121   1.829   6.803  0.0200  0.1460  0.5065
 7633TIP3    H139471   4.099   1.915   6.837 -1.2677 -0.4581  1.2730
 7633TIP3    H239472   4.056   1.813   6.734  1.5284  0.6247 -1.1140
 7634TIP3   OH239473   2.108   0.288   8.727 -0.1075  0.0401 -0.6918
 7634TIP3    H139474   2.133   0.319   8.640  0.0704  2.6088  0.1891
 7634TIP3    H239475   2.017   0.262   8.718 -0.2288  0.6916 -1.5663
 7635TIP3   OH239476   4.927   5.135   1.452 -0.3578 -0.6123 -0.0795
 7635TIP3    H139477   5.019   5.162   1.451 -0.8970  1.8691  2.6822
 7635TIP3    H239478   4.906   5.127   1.545 -3.1154 -0.4022 -0.6082
 7636TIP3   OH239479   3.362   5.144   0.925 -0.4586  0.1460 -0.0119
 7636TIP3    H139480   3.334   5.185   1.007 -0.8559  0.2896 -0.2155
 7636TIP3    H239481   3.406   5.214   0.877  1.0141 -0.2798  0.6504
 7637TIP3   OH239482   0.783   2.270   7.667 -0.3518 -0.1406 -0.0756
 7637TIP3    H139483   0.859   2.329   7.665  0.1015 -0.7259 -0.1496
 7637TIP3    H239484   0.727   2.301   7.595  0.5910 -0.7230 -1.0955
 7638TIP3   OH239485   3.567   4.295   1.077 -0.4950 -0.1559 -0.3483
 7638TIP3    H139486   3.648   4.341   1.053  0.8912 -1.8786  0.7625
 7638TIP3    H239487   3.499   4.362   1.072  1.3732  2.0005  1.0488
 7639TIP3   OH239488   0.594   5.297   1.986 -0.9677 -0.5046  0.3865
 7639TIP3    H139489   0.671   5.321   2.038 -0.7863 -1.3778  0.5343
 7639TIP3    H239490   0.630   5.276   1.900 -1.2308  0.6151 -0.0100
 7640TIP3   OH239491   0.602   6.083   1.581 -0.1655  0.2525  0.1576
 7640TIP3    H139492   0.611   6.074   1.486 -2.2040 -0.2659 -0.0223
 7640TIP3    H239493   0.613   6.177   1.597 -0.8564  0.4936 -0.7256
 7641TIP3   OH239494   1.656   4.138   8.548 -0.2317 -0.4452 -0.1451
 7641TIP3    H139495   1.733   4.118   8.601 -1.4310 -2.4365  0.9827
 7641TIP3    H239496   1.585   4.149   8.611 -1.0000  0.8130 -1.1755
 7642TIP3   OH239497   0.559   4.353   0.980  0.0079 -0.3388  0.1634
 7642TIP3    H139498   0.647   4.361   1.018 -0.9351  1.3896  2.2430
 7642TIP3    H239499   0.541   4.440   0.943 -0.6448 -0.8237 -0.6907
 7643TIP3   OH239500   0.147   3.589   7.505  0.0612 -0.8044  0.9834
 7643TIP3    H139501   0.055   3.611   7.523 -0.7864 -3.9009  0.9793
 7643TIP3    H239502   0.197   3.655   7.553 -2.0091  3.0916 -1.6574
 7644TIP3   OH239503   0.925   0.986   0.281 -0.0127  0.4789 -0.4270
 7644TIP3    H139504   0.848   1.034   0.311 -0.0457  0.0059  0.2739
 7644TIP3    H239505   0.993   1.008   0.344  0.4478  0.9287 -1.0681
 7645TIP3   OH239506   3.902   6.247   2.842 -0.4862 -0.2340  0.3677
 7645TIP3    H139507   3.929   6.168   2.795 -1.1121  0.5120 -1.3247
 7645TIP3    H239508   3.941   6.238   2.929  0.8087 -1.6272 -0.3182
 7646TIP3   OH239509   2.880   4.721   8.281  0.4098  0.5086 -0.2971
 7646TIP3    H139510   2.894   4.674   8.363  0.2039  0.4160 -0.3123
 7646TIP3    H239511   2.950   4.691   8.223 -0.2863 -0.5198 -0.6235
 7647TIP3   OH239512   5.048   1.281   1.193 -0.3851  0.5777 -0.1435
 7647TIP3    H139513   5.049   1.201   1.246 -1.0519  1.2865  0.9729
 7647TIP3    H239514   4.965   1.324   1.214 -1.5094  0.0721 -3.0705
 7648TIP3   OH239515   2.542   2.130   7.129  0.3098  0.2113  0.1773
 7648TIP3    H139516   2.495   2.088   7.202 -3.1278  0.2917 -1.7777
 7648TIP3    H239517   2.580   2.058   7.080 -0.4260 -0.1370  0.1140
 7649TIP3   OH239518   3.322   0.266   6.295  0.3530 -0.1568  0.1054
 7649TIP3    H139519   3.242   0.222   6.324  0.4286 -0.8276 -0.6999
 7649TIP3    H239520   3.374   0.198   6.254  2.1673 -0.1505  2.1846
 7650TIP3   OH239521   6.415   2.247   0.297  0.8162 -0.2325 -0.6200
 7650TIP3    H139522   6.354   2.195   0.349  0.5422 -0.8668 -1.5332
 7650TIP3    H239523   6.360   2.312   0.254  0.9589 -0.0530 -0.5305
 7651TIP3   OH239524   6.166   3.799   7.654 -0.1886  0.9164  0.7810
 7651TIP3    H139525   6.159   3.894   7.656 -2.7043  0.8611 -0.6918
 7651TIP3    H239526   6.101   3.768   7.717  0.4018  0.1739  1.0355
 7652TIP3   OH239527   4.088   3.543   9.141 -0.0258 -0.1905  0.3480
 7652TIP3    H139528   4.160   3.484   9.116 -1.1364 -1.5793  0.3329
 7652TIP3    H239529   4.086   3.609   9.072  0.8790 -0.4450  0.0603
 7653TIP3   OH239530   1.816   2.020   1.974  0.4051 -0.1479 -0.0383
 7653TIP3    H139531   1.773   1.935   1.979  1.9476 -1.1918 -2.3474
 7653TIP3    H239532   1.799   2.050   1.885  0.3947  1.6941  0.5522
 7654TIP3   OH239533   0.769   2.318   1.145 -0.0189 -0.0220 -0.1751
 7654TIP3    H139534   0.793   2.354   1.230 -0.6054  0.6096 -0.2643
 7654TIP3    H239535   0.694   2.262   1.163 -0.3048  0.3108 -0.3005
 7655TIP3   OH239536   1.195   1.087   7.455 -0.1449 -0.0605 -0.1805
 7655TIP3    H139537   1.249   1.011   7.433  0.2820  0.0901  0.3014
 7655TIP3    H239538   1.256   1.146   7.501 -0.6310  0.2751  0.0393
 7656TIP3   OH239539   4.300   4.585   1.176 -0.0872  0.0600 -0.6130
 7656TIP3    H139540   4.212   4.621   1.177 -1.0714 -2.1561  0.8661
 7656TIP3    H239541   4.350   4.643   1.119 -2.6445  0.9988 -2.0166
 7657TIP3   OH239542   6.049   4.184   9.178  0.3214 -0.2340 -0.3585
 7657TIP3    H139543   6.012   4.133   9.250 -1.4651  1.6191  0.1294
 7657TIP3    H239544   6.019   4.139   9.099 -2.5224  0.7979  0.0351
 7658TIP3   OH239545   5.019   0.286   0.022  0.3934  0.2806 -0.2793
 7658TIP3    H139546   5.086   0.219   0.037  0.4328  0.2724 -0.4843
 7658TIP3    H239547   5.001   0.322   0.109 -0.6829 -0.9906  0.0530
 7659TIP3   OH239548   3.258   4.730   7.349 -0.0155 -0.0806  0.1999
 7659TIP3    H139549   3.299   4.702   7.267  3.1551 -0.0893  1.6497
 7659TIP3    H239550   3.173   4.685   7.350  1.3232 -2.9083 -1.4555
 7660TIP3   OH239551   5.310   5.777   2.681 -0.3657 -0.3217 -0.3174
 7660TIP3    H139552   5.322   5.771   2.586  1.0910  3.7812 -0.5778
 7660TIP3    H239553   5.381   5.724   2.718  1.0957  0.6392 -1.6312
 7661TIP3   OH239554   6.256   2.990   8.891  0.1005 -0.5434  0.0203
 7661TIP3    H139555   6.174   2.963   8.849 -0.1032 -0.4917  0.3876
 7661TIP3    H239556   6.231   3.018   8.978  0.1994  1.4646 -0.5515
 7662TIP3   OH239557   1.936   6.022   1.255 -0.3176  0.0947  0.0577
 7662TIP3    H139558   1.995   5.947   1.244 -1.2245 -0.9181  1.7116
 7662TIP3    H239559   1.990   6.090   1.295  0.0811 -0.3064  0.2074
 7663TIP3   OH239560   1.422   5.650   8.130 -0.2558 -0.2341 -0.2783
 7663TIP3    H139561   1.437   5.694   8.047 -1.3674 -1.6360 -1.2711
 7663TIP3    H239562   1.509   5.637   8.167  0.1550  2.0257 -0.3166
 7664TIP3   OH239563   1.534   0.134   0.155 -0.2806  0.1549 -0.3654
 7664TIP3    H139564   1.447   0.174   0.154 -0.3402  0.0460  0.0510
 7664TIP3    H239565   1.517   0.041   0.168 -0.1484 -0.0350 -1.4747
 7665TIP3   OH239566   3.337   1.638   1.786  0.5548 -0.3211  0.0369
 7665TIP3    H139567   3.323   1.732   1.797 -0.6897 -0.4254 -0.5018
 7665TIP3    H239568   3.277   1.596   1.848 -1.2421 -0.7774 -1.9052
 7666TIP3   OH239569   0.332   2.149   7.204  0.5787  0.2693  1.3931
 7666TIP3    H139570   0.298   2.107   7.283  0.4516  0.4445  1.4319
 7666TIP3    H239571   0.426   2.136   7.208  0.3565 -2.6027 -0.0625
 7667TIP3   OH239572   5.349   2.951   8.817  0.2278  0.0011  0.1070
 7667TIP3    H139573   5.374   2.886   8.883  2.0443 -1.7175 -2.0976
 7667TIP3    H239574   5.330   3.030   8.867  2.3874 -0.9182  2.6297
 7668TIP3   OH239575   3.053   5.200   0.708 -0.3150  0.6018  0.0760
 7668TIP3    H139576   3.007   5.161   0.782 -0.1136 -0.2443 -0.2381
 7668TIP3    H239577   3.069   5.127   0.648 -0.9918  1.3738 -1.0844
 7669TIP3   OH239578   5.242   5.058   0.735 -0.0401 -0.3722 -0.4005
 7669TIP3    H139579   5.177   5.012   0.787  0.5741 -0.6158  0.1647
 7669TIP3    H239580   5.322   5.054   0.787  1.0244 -2.0442 -2.0423
 7670TIP3   OH239581   2.399   2.012   2.760 -0.0102  0.5318 -0.0629
 7670TIP3    H139582   2.440   2.087   2.717  2.0122  0.3187  1.3800
 7670TIP3    H239583   2.440   2.008   2.846 -1.0290 -1.4710  0.3948
 7671TIP3   OH239584   4.815   1.086   1.782  0.1649  0.5934 -0.6516
 7671TIP3    H139585   4.831   1.003   1.737 -0.6048  0.1998 -0.2151
 7671TIP3    H239586   4.865   1.080   1.863 -2.4155 -0.8596  0.9698
 7672TIP3   OH239587   6.150   4.843   7.545 -0.1968  0.1510  0.0690
 7672TIP3    H139588   6.215   4.913   7.540  1.0314 -0.9712 -0.1631
 7672TIP3    H239589   6.116   4.849   7.635 -0.5697  1.4109 -0.1333
 7673TIP3   OH239590   0.127   1.046   2.488 -0.2381  1.1147  0.1663
 7673TIP3    H139591   0.217   1.050   2.455  0.2242  0.5137  1.2808
 7673TIP3    H239592   0.087   1.128   2.460 -0.8839 -0.5165 -4.5019
 7674TIP3   OH239593   4.970   3.952   7.373 -0.0643  0.4227 -0.5653
 7674TIP3    H139594   4.904   3.899   7.416 -1.1317  2.1090 -0.0153
 7674TIP3    H239595   5.050   3.938   7.424 -0.7016  0.4901  0.4742
 7675TIP3   OH239596   6.178   1.854   7.041  0.3965 -0.5599  0.0773
 7675TIP3    H139597   6.251   1.897   7.086 -0.7766  0.4621  1.0800
 7675TIP3    H239598   6.219   1.808   6.968  2.3346 -1.9007  1.8747
 7676TIP3   OH239599   2.947   5.351   1.211  0.1016  0.1370  0.1211
 7676TIP3    H139600   3.032   5.385   1.184 -1.3695  3.1952 -1.0718
 7676TIP3    H239601   2.891   5.362   1.134 -1.1857 -2.9290  0.4572
 7677TIP3   OH239602   4.938   4.289   0.760  0.1630  0.0164  0.3485
 7677TIP3    H139603   4.983   4.206   0.772  1.4958  0.3488 -1.8916
 7677TIP3    H239604   4.986   4.333   0.690  0.0445  3.0800  2.0099
 7678TIP3   OH239605   0.700   5.711   2.016 -0.1060 -0.0674  0.0927
 7678TIP3    H139606   0.716   5.797   1.978 -0.5431 -0.0008  0.0471
 7678TIP3    H239607   0.786   5.677   2.039  0.1756 -0.0933 -0.9424
 7679TIP3   OH239608   4.272   4.448   9.282  0.1841 -0.4756  0.0929
 7679TIP3    H139609   4.306   4.359   9.275 -0.7924 -0.8149 -0.4691
 7679TIP3    H239610   4.348   4.504   9.267  0.9256 -1.2006  1.0309
 7680TIP3   OH239611   6.238   3.810   6.298  0.3238  0.0710  0.1422
 7680TIP3    H139612   6.146   3.806   6.326  0.6620  1.0361  1.5312
 7680TIP3    H239613   6.256   3.903   6.287  0.9118 -0.1577 -0.9993
 7681TIP3   OH239614   2.055   3.291   0.501  0.2703 -1.1077  0.4747
 7681TIP3    H139615   2.044   3.197   0.485  0.2299 -1.1947  0.9851
 7681TIP3    H239616   2.147   3.300   0.527  0.7292 -0.7644 -1.1713
 7682TIP3   OH239617   5.555   0.793   7.934 -0.4936 -0.1487 -0.5926
 7682TIP3    H139618   5.542   0.702   7.961 -1.0445 -0.0265 -0.4148
 7682TIP3    H239619   5.518   0.797   7.846  2.5167 -0.8690 -2.0008
 7683TIP3   OH239620   1.773   0.129   1.136 -0.1846  0.2164 -0.2136
 7683TIP3    H139621   1.756   0.122   1.042  0.1672  1.7166 -0.4203
 7683TIP3    H239622   1.813   0.216   1.146 -0.4610  0.1841  1.3609
 7684TIP3   OH239623   0.493   1.173   9.362 -0.1407  0.7871 -0.2299
 7684TIP3    H139624   0.444   1.221   9.429  1.3956 -0.0997  1.6441
 7684TIP3    H239625   0.573   1.145   9.407  0.3487 -1.0137 -2.0748
 7685TIP3   OH239626   5.024   1.910   8.641  0.1587  0.1183 -0.3131
 7685TIP3    H139627   5.003   1.975   8.709 -1.4025 -1.1398  0.4646
 7685TIP3    H239628   4.968   1.835   8.661 -1.7919  0.3445 -4.0174
 7686TIP3   OH239629   3.207   5.407   2.323 -0.2453  0.9853  0.0999
 7686TIP3    H139630   3.208   5.498   2.296 -0.9834  1.4682  1.6029
 7686TIP3    H239631   3.282   5.399   2.383 -0.2387  0.6212  0.0462
 7687TIP3   OH239632   3.625   0.892   7.814  0.6034  0.3774 -0.4031
 7687TIP3    H139633   3.541   0.925   7.783  0.6158  1.1155  0.3310
 7687TIP3    H239634   3.681   0.969   7.817  1.9207 -0.3815 -2.7338
 7688TIP3   OH239635   6.086   1.801   2.659 -0.4022 -0.9269 -0.6340
 7688TIP3    H139636   6.114   1.864   2.592 -0.7233  1.3034  1.1755
 7688TIP3    H239637   6.001   1.834   2.689 -1.4620 -3.2916 -0.8126
 7689TIP3   OH239638   4.424   2.764   8.190  0.4375 -0.1621  0.2458
 7689TIP3    H139639   4.459   2.853   8.192  1.2974 -0.4995  0.4497
 7689TIP3    H239640   4.500   2.708   8.175 -0.0123 -0.9062  0.6738
 7690TIP3   OH239641   2.181   0.814   1.096  0.1813  0.0979  0.2073
 7690TIP3    H139642   2.192   0.835   1.003 -1.9057 -0.6817 -0.2654
 7690TIP3    H239643   2.177   0.900   1.140 -0.2833  0.5208 -0.6311
 7691TIP3   OH239644   4.847   6.412   0.299  0.4972 -0.5025 -0.3351
 7691TIP3    H139645   4.933   6.384   0.331 -0.1075 -1.0023  0.9387
 7691TIP3    H239646   4.836   6.365   0.217  2.0381  0.6879 -1.2683
 7692TIP3   OH239647   3.488   2.528   1.358 -0.2423  0.7097  0.3330
 7692TIP3    H139648   3.472   2.489   1.272  0.2567  0.6030  0.2841
 7692TIP3    H239649   3.563   2.587   1.345  1.1351 -0.7807  1.0947
 7693TIP3   OH239650   3.474   1.737   0.468 -0.6423 -0.1250  0.1515
 7693TIP3    H139651   3.501   1.716   0.378 -1.1363 -0.3796  0.0574
 7693TIP3    H239652   3.528   1.680   0.523 -0.9856 -0.6350 -0.0334
 7694TIP3   OH239653   5.140   4.684   1.709  0.1236  0.3496 -0.1219
 7694TIP3    H139654   5.080   4.753   1.680  0.9989  1.1699 -0.0312
 7694TIP3    H239655   5.186   4.658   1.629  1.5935  1.6805  0.2332
 7695TIP3   OH239656   5.520   3.858   1.971  0.7819  0.0337 -0.0270
 7695TIP3    H139657   5.431   3.870   2.004  0.8336 -1.8327  0.9144
 7695TIP3    H239658   5.535   3.935   1.916 -1.9786 -0.3181 -1.4724
 7696TIP3   OH239659   3.215   4.747   1.792 -0.1089 -0.1717 -0.3472
 7696TIP3    H139660   3.191   4.660   1.759  1.7545 -0.9469  0.1950
 7696TIP3    H239661   3.280   4.779   1.729  0.7439 -0.0889  0.5537
 7697TIP3   OH239662   3.782   0.617   7.130  0.2975  0.0500  0.3132
 7697TIP3    H139663   3.738   0.535   7.108  2.4248 -0.2430 -3.8792
 7697TIP3    H239664   3.864   0.591   7.171  0.0542  0.1994  0.9001
 7698TIP3   OH239665   3.777   4.508   1.030 -0.3366  0.3235  0.0869
 7698TIP3    H139666   3.769   4.597   0.995  2.1861  0.7810  0.5289
 7698TIP3    H239667   3.856   4.509   1.084  1.2279 -2.7692 -1.8339
 7699TIP3   OH239668   4.316   5.713   8.668  0.1503 -0.5584 -0.0054
 7699TIP3    H139669   4.248   5.775   8.641 -1.4812 -2.1436  0.2416
 7699TIP3    H239670   4.353   5.751   8.747 -0.8346  0.1163  0.1532
 7700TIP3   OH239671   2.551   1.512   0.172  0.5913 -0.1572  0.0863
 7700TIP3    H139672   2.495   1.578   0.131  2.7600  1.5167 -0.3525
 7700TIP3    H239673   2.541   1.434   0.116 -2.7827 -0.6892  1.1765
 7701TIP3   OH239674   5.350   0.882   8.846 -0.0294  0.3755 -0.2332
 7701TIP3    H139675   5.333   0.947   8.915  0.4390 -0.2169  0.4547
 7701TIP3    H239676   5.284   0.814   8.860  0.2256  0.1317 -0.2012
 7702TIP3   OH239677   5.518   2.806   1.824  0.6650 -0.1203  0.7779
 7702TIP3    H139678   5.533   2.828   1.732  0.3817  0.7516  0.9288
 7702TIP3    H239679   5.526   2.711   1.828 -0.4314 -0.2842 -0.3600
 7703TIP3   OH239680   4.992   3.737   9.092  0.4289 -0.2771  0.1823
 7703TIP3    H139681   4.923   3.739   9.025 -0.0523 -0.1628  0.6695
 7703TIP3    H239682   4.944   3.732   9.174  0.9346  1.8812  0.6674
 7704TIP3   OH239683   6.315   2.551   0.830 -0.4741  0.3240  0.8923
 7704TIP3    H139684   6.317   2.551   0.926 -0.4262 -0.8477  0.8989
 7704TIP3    H239685   6.404   2.575   0.804 -0.1645 -0.5437  1.1418
 7705TIP3   OH239686   0.745   1.350   0.980  0.6837 -0.4502 -0.2488
 7705TIP3    H139687   0.698   1.371   0.900  2.3145  1.9912 -0.6509
 7705TIP3    H239688   0.790   1.267   0.960  2.3155  0.8587 -2.5063
 7706TIP3   OH239689   3.561   1.370   7.205  0.6242 -0.4482 -0.3079
 7706TIP3    H139690   3.644   1.372   7.252  0.4840 -0.0002 -0.0649
 7706TIP3    H239691   3.575   1.427   7.129  0.8639 -1.2044 -0.8427
 7707TIP3   OH239692   2.729   0.390   0.484  0.3675  0.6318 -0.4983
 7707TIP3    H139693   2.650   0.438   0.507 -0.1149  0.2922 -1.3910
 7707TIP3    H239694   2.737   0.402   0.389  0.5831 -0.5207 -0.6415
 7708TIP3   OH239695   5.341   3.664   2.313  0.0490  0.2588 -0.2409
 7708TIP3    H139696   5.333   3.633   2.223 -1.0624  1.0738 -0.4483
 7708TIP3    H239697   5.291   3.746   2.315  0.8403  0.7405  0.8882
 7709TIP3   OH239698   3.610   2.154   6.147 -0.1244 -0.1590 -0.0021
 7709TIP3    H139699   3.551   2.221   6.112 -1.6159 -0.4688  1.7897
 7709TIP3    H239700   3.698   2.183   6.121 -0.7733  2.1590  0.1962
 7710TIP3   OH239701   0.821   2.790   0.947  0.2537 -0.2724 -0.0787
 7710TIP3    H139702   0.744   2.827   0.905 -0.4616  0.0779  1.4783
 7710TIP3    H239703   0.805   2.695   0.947 -0.9648 -0.1106  1.6296
 7711TIP3   OH239704   1.136   0.909   2.149  0.0087 -0.2884 -0.1650
 7711TIP3    H139705   1.135   0.918   2.244  0.9272  1.1260 -0.2680
 7711TIP3    H239706   1.213   0.957   2.121 -0.0194 -1.0384 -1.6047
 7712TIP3   OH239707   0.404   3.459   3.077 -0.4189 -0.1396  0.0825
 7712TIP3    H139708   0.449   3.528   3.028 -0.2317 -0.2923  0.0396
 7712TIP3    H239709   0.324   3.443   3.027  1.3058 -2.6763 -2.1384
 7713TIP3   OH239710   4.097   0.863   6.659  0.3338 -0.0651 -0.1369
 7713TIP3    H139711   4.019   0.917   6.641  0.4522  1.1271  2.4807
 7713TIP3    H239712   4.062   0.775   6.671 -0.1615 -0.1953 -2.1320
 7714TIP3   OH239713   2.650   1.085   1.012 -0.0299 -0.7161 -0.0061
 7714TIP3    H139714   2.734   1.043   1.031  0.6627 -0.0419 -1.4056
 7714TIP3    H239715   2.600   1.076   1.093  0.8282 -2.4434  0.3779
 7715TIP3   OH239716   1.461   4.590   1.303  0.0176  0.1224 -0.5599
 7715TIP3    H139717   1.484   4.523   1.238  0.1924 -0.5881  0.2223
 7715TIP3    H239718   1.370   4.570   1.326 -0.2381  0.7286 -0.9910
 7716TIP3   OH239719   1.153   5.772   2.260 -0.7487 -0.2817  0.7323
 7716TIP3    H139720   1.171   5.680   2.240 -0.9544 -0.5390  1.6713
 7716TIP3    H239721   1.235   5.805   2.296 -0.9921 -0.4076  1.4207
 7717TIP3   OH239722   4.664   0.562   1.363 -0.8056 -0.2215 -0.4384
 7717TIP3    H139723   4.743   0.527   1.322 -1.1195 -0.9336 -0.4557
 7717TIP3    H239724   4.600   0.491   1.354 -1.1158 -0.0731  0.5605
 7718TIP3   OH239725   5.982   1.052   7.855  0.0765  0.0716  0.3212
 7718TIP3    H139726   6.063   1.008   7.828 -0.6369 -1.8638  1.0931
 7718TIP3    H239727   5.939   0.989   7.913 -2.2328  0.7930 -0.4590
 7719TIP3   OH239728   4.331   2.977   0.686 -0.6275 -0.0987 -0.5417
 7719TIP3    H139729   4.329   2.900   0.744 -0.9969  0.0327 -0.3789
 7719TIP3    H239730   4.424   2.986   0.662 -0.7986 -1.6040 -1.9141
 7720TIP3   OH239731   4.967   3.468   8.899  0.1163  0.1150  0.2603
 7720TIP3    H139732   5.019   3.399   8.857 -0.8283  1.0724 -2.7416
 7720TIP3    H239733   5.027   3.543   8.904 -0.4807  0.8496 -2.1117
 7721TIP3   OH239734   2.530   5.718   1.766  0.3703  0.4644  0.5858
 7721TIP3    H139735   2.507   5.633   1.802  0.3088  0.6111  0.9025
 7721TIP3    H239736   2.463   5.777   1.801 -0.9020  0.2785 -1.3527
 7722TIP3   OH239737   0.132   2.773   7.615  0.3492 -0.0665  0.4601
 7722TIP3    H139738   0.148   2.786   7.522 -0.7722  2.2051  0.5069
 7722TIP3    H239739   0.040   2.745   7.620  0.4096 -0.2061  0.8914
 7723TIP3   OH239740   0.051   6.200   0.019  0.1706  0.1868  0.9366
 7723TIP3    H139741   0.076   6.228  -0.069 -2.0850  3.1142  1.0468
 7723TIP3    H239742   0.085   6.269   0.077  0.5484 -1.0341  2.2328
 7724TIP3   OH239743   3.821   3.208   1.956 -0.0188  0.0168 -0.5844
 7724TIP3    H139744   3.761   3.264   2.005  0.2930  0.4120 -0.6527
 7724TIP3    H239745   3.908   3.247   1.969  0.0717  0.1307 -1.4528
 7725TIP3   OH239746   5.695   3.797   1.309  0.0949  0.6285  0.0876
 7725TIP3    H139747   5.666   3.882   1.276 -1.0018  0.5214  0.7308
 7725TIP3    H239748   5.701   3.810   1.404  1.5928  0.4667  0.0341
 7726TIP3   OH239749   3.000   5.715   7.703  0.0092  0.0690  0.8002
 7726TIP3    H139750   3.044   5.631   7.684  0.3413  0.5672 -0.8341
 7726TIP3    H239751   3.017   5.730   7.796  1.3116 -0.9151  0.7649
 7727TIP3   OH239752   5.850   1.443   9.016  0.6793 -0.4034  0.5886
 7727TIP3    H139753   5.785   1.378   9.045 -0.3129  0.2539 -0.0838
 7727TIP3    H239754   5.932   1.413   9.054 -0.4972  0.4715  4.2096
 7728TIP3   OH239755   1.795   0.555   2.966 -0.2963  0.1187  0.1165
 7728TIP3    H139756   1.752   0.485   3.015 -0.6528 -1.9847 -2.9329
 7728TIP3    H239757   1.873   0.515   2.929 -0.0537  1.5776 -1.0524
 7729TIP3   OH239758   2.625   0.741   2.695 -0.3458  0.3642  0.6772
 7729TIP3    H139759   2.665   0.715   2.778  0.2269  0.0795  0.3206
 7729TIP3    H239760   2.651   0.672   2.633 -0.1449  0.9529  0.0903
 7730TIP3   OH239761   1.592   2.520   8.027 -0.1178 -0.2235 -0.0851
 7730TIP3    H139762   1.514   2.487   7.982  0.3439  0.1150 -1.1606
 7730TIP3    H239763   1.664   2.468   7.991  0.1808 -0.4563  0.8180
 7731TIP3   OH239764   0.272   4.294   0.576 -0.7674  0.0341  0.5795
 7731TIP3    H139765   0.362   4.281   0.606 -0.5700  2.2363  1.1756
 7731TIP3    H239766   0.282   4.322   0.485 -0.9927 -1.4169  0.0954
 7732TIP3   OH239767   0.044   3.641   7.157  0.0645  0.6236  1.1405
 7732TIP3    H139768   0.099   3.563   7.167 -0.0576  0.2353 -0.7632
 7732TIP3    H239769   0.100   3.704   7.112 -0.4183  0.9770  1.0334
 7733TIP3   OH239770   1.720   2.589   7.372  0.0103 -0.9170  0.0532
 7733TIP3    H139771   1.649   2.570   7.433  1.5513 -1.9422  1.6306
 7733TIP3    H239772   1.795   2.538   7.405  1.1629 -0.8508 -2.2255
 7734TIP3   OH239773   0.206   5.392   8.138  0.1425  0.6279  0.2095
 7734TIP3    H139774   0.155   5.443   8.200 -2.4143 -1.5629  0.0795
 7734TIP3    H239775   0.232   5.454   8.070 -1.8212  1.9774  0.6204
 7735TIP3   OH239776   1.521   4.051   0.233 -0.5598 -0.2652  0.2532
 7735TIP3    H139777   1.583   4.084   0.168 -1.3866 -0.5404 -0.6949
 7735TIP3    H239778   1.477   4.130   0.265 -1.3990 -0.2690 -0.8360
 7736TIP3   OH239779   0.042   5.589   7.265 -0.1434  0.5797  0.2000
 7736TIP3    H139780   0.050   5.609   7.358 -0.8051 -0.3351  0.4655
 7736TIP3    H239781  -0.000   5.666   7.228 -0.9042  0.4925  0.8597
 7737TIP3   OH239782   3.495   0.900   8.844 -0.7289  0.2505 -0.4383
 7737TIP3    H139783   3.531   0.830   8.790  0.5864  1.0387 -0.6141
 7737TIP3    H239784   3.454   0.960   8.781 -0.1241  0.6334 -0.4696
 7738TIP3   OH239785   3.283   2.635   2.069  0.2311  0.3544 -0.1059
 7738TIP3    H139786   3.230   2.630   2.148  0.9496 -1.8219  0.3038
 7738TIP3    H239787   3.224   2.671   2.003 -0.8365  0.7872  1.0469
 7739TIP3   OH239788   0.329   5.096   7.589  0.2586 -0.2327  0.0509
 7739TIP3    H139789   0.263   5.039   7.627 -2.3221  0.9494 -2.3241
 7739TIP3    H239790   0.362   5.048   7.513  0.4645  0.1485 -0.1030
 7740TIP3   OH239791   1.394   1.233   7.213  0.1701 -0.0083 -0.1290
 7740TIP3    H139792   1.407   1.221   7.119 -1.7833  1.7745 -0.6849
 7740TIP3    H239793   1.304   1.204   7.229 -0.8469  3.0896  0.4398
 7741TIP3   OH239794   4.404   5.569   2.682 -0.2441  0.2994 -0.2973
 7741TIP3    H139795   4.359   5.493   2.644 -1.1355 -0.7776  2.6197
 7741TIP3    H239796   4.492   5.564   2.646 -0.6153 -1.4462 -1.1009
 7742TIP3   OH239797   0.891   1.640   0.900  0.3388  0.0735 -0.3268
 7742TIP3    H139798   0.868   1.602   0.815 -1.4412  1.2866 -0.4247
 7742TIP3    H239799   0.961   1.702   0.881 -0.2637  0.5649 -0.9611
 7743TIP3   OH239800   6.406   0.823   8.162 -0.4586  0.4169 -0.1167
 7743TIP3    H139801   6.324   0.847   8.119 -0.5402 -0.8304 -0.6981
 7743TIP3    H239802   6.447   0.761   8.101  1.1026  1.2998 -0.0271
 7744TIP3   OH239803   4.917   1.271   6.893 -0.3833 -0.0616 -0.0779
 7744TIP3    H139804   4.947   1.202   6.952 -1.7026 -1.5503 -1.0630
 7744TIP3    H239805   4.984   1.276   6.825  0.6574  0.9922  0.9728
 7745TIP3   OH239806   1.787   4.792   1.564 -0.3048  0.1361  0.1504
 7745TIP3    H139807   1.813   4.764   1.476 -0.7881  1.8998 -0.5781
 7745TIP3    H239808   1.693   4.772   1.569 -0.3385  0.3017  0.1689
 7746TIP3   OH239809   4.581   3.117   1.438  0.3443 -0.0051  0.5190
 7746TIP3    H139810   4.578   3.197   1.386 -1.9907 -0.1065  0.4049
 7746TIP3    H239811   4.584   3.146   1.529 -0.6281  0.2320  0.4817
 7747TIP3   OH239812   3.789   6.174   2.072  0.0008 -0.2500 -0.4994
 7747TIP3    H139813   3.699   6.168   2.105 -0.4146 -0.6612 -1.6593
 7747TIP3    H239814   3.804   6.090   2.027  2.0957 -1.5740  2.3270
 7748TIP3   OH239815   3.869   5.452   9.022  0.0423  0.2223  0.6515
 7748TIP3    H139816   3.814   5.410   8.956  0.1967  0.7722  0.1661
 7748TIP3    H239817   3.909   5.379   9.069 -0.0681 -0.1800  0.1387
 7749TIP3   OH239818   0.923   3.788   1.520 -0.3066 -0.1709  0.1180
 7749TIP3    H139819   0.993   3.780   1.455  0.4683  1.1899  0.7519
 7749TIP3    H239820   0.847   3.818   1.469  0.0216 -0.0437 -0.3013
 7750TIP3   OH239821   1.209   1.910   1.227 -0.1331 -0.2739  0.5053
 7750TIP3    H139822   1.173   1.976   1.169  1.4184  1.9376  1.9123
 7750TIP3    H239823   1.164   1.829   1.202 -1.1681  1.0075 -2.1556
 7751TIP3   OH239824   2.421   0.443   6.558  0.1557  0.1042  0.5002
 7751TIP3    H139825   2.416   0.453   6.463  0.1409  0.8856  0.5798
 7751TIP3    H239826   2.432   0.349   6.571  2.0771  0.1658 -0.3482
 7752TIP3   OH239827   3.839   3.431   7.900  0.8335  0.4634 -0.2561
 7752TIP3    H139828   3.856   3.479   7.819  0.6794  0.1901 -0.4517
 7752TIP3    H239829   3.756   3.466   7.932  1.1461  0.9359  0.0598
 7753TIP3   OH239830   2.242   2.117   1.080  0.1492 -0.2239  0.3065
 7753TIP3    H139831   2.319   2.172   1.090 -0.6542  0.7903  1.2193
 7753TIP3    H239832   2.210   2.135   0.991 -0.0074  0.6802  0.5350
 7754TIP3   OH239833   1.292   3.259   8.135  0.5277  0.1480  0.4268
 7754TIP3    H139834   1.259   3.348   8.127 -0.6986 -0.1230  1.9275
 7754TIP3    H239835   1.217   3.204   8.112  0.7999 -0.4921  1.0438
 7755TIP3   OH239836   0.471   5.117   7.941  0.0411  0.0570 -1.0059
 7755TIP3    H139837   0.469   5.021   7.941 -0.8922  0.0525  0.5292
 7755TIP3    H239838   0.451   5.142   8.031 -0.7680  1.7186 -1.6047
 7756TIP3   OH239839   4.010   5.173   0.180 -0.1084 -0.8646 -0.2377
 7756TIP3    H139840   3.937   5.210   0.131  1.4964 -1.8070 -3.6605
 7756TIP3    H239841   3.989   5.080   0.188  1.0610 -1.3555 -2.1867
 7757TIP3   OH239842   4.490   6.189   0.699  0.1437  0.4012  1.2421
 7757TIP3    H139843   4.539   6.235   0.632 -0.7807  1.4701  1.2748
 7757TIP3    H239844   4.399   6.197   0.673 -0.0810 -1.0823  1.4701
 7758TIP3   OH239845   3.974   2.165   1.456 -0.3435  0.0619  0.0589
 7758TIP3    H139846   3.977   2.247   1.506  0.9366 -0.0949  0.2523
 7758TIP3    H239847   4.010   2.099   1.515 -1.3550 -0.6611 -0.1013
 7759TIP3   OH239848   3.737   2.689   8.170 -0.0586 -0.3890  0.0764
 7759TIP3    H139849   3.802   2.758   8.161  1.3395 -1.4723  1.2943
 7759TIP3    H239850   3.653   2.733   8.156  0.9002  1.0675 -1.4231
 7760TIP3   OH239851   5.193   6.225   8.433 -0.3204 -0.1360 -0.3371
 7760TIP3    H139852   5.217   6.168   8.507 -0.5684 -0.1703 -0.2817
 7760TIP3    H239853   5.187   6.165   8.358  0.2568 -0.0521 -0.4564
 7761TIP3   OH239854   5.160   0.162   1.465 -0.0307  0.2723 -0.0139
 7761TIP3    H139855   5.096   0.090   1.463  1.3884 -1.0273  0.0885
 7761TIP3    H239856   5.205   0.156   1.381  0.5924  0.6002  0.2920
 7762TIP3   OH239857   2.003   0.621   1.939  0.3077 -0.0673  0.2667
 7762TIP3    H139858   1.975   0.602   1.849 -0.3206  2.7973 -0.2271
 7762TIP3    H239859   2.052   0.543   1.965  1.3351 -0.6483 -2.9011
 7763TIP3   OH239860   3.373   4.940   0.196 -0.1945  0.6094 -0.1609
 7763TIP3    H139861   3.328   5.023   0.181  0.4369  1.1925  1.0027
 7763TIP3    H239862   3.324   4.876   0.145 -0.8639  1.6433 -0.8514
 7764TIP3   OH239863   5.301   4.669   0.290 -0.9265  0.5089 -0.1873
 7764TIP3    H139864   5.254   4.617   0.356 -0.0268  1.9244  1.6750
 7764TIP3    H239865   5.241   4.741   0.271 -2.7174 -1.6468 -3.7014
 7765TIP3   OH239866   5.401   0.104   6.601  0.4329 -0.1184  0.6515
 7765TIP3    H139867   5.455   0.181   6.584  0.1015 -0.0034  0.0718
 7765TIP3    H239868   5.463   0.036   6.625  0.6649  0.5305  1.9591
 7766TIP3   OH239869   6.396   5.924   0.849 -0.4684  0.1090  0.4002
 7766TIP3    H139870   6.436   5.937   0.935 -1.8730  0.5889  1.0027
 7766TIP3    H239871   6.470   5.908   0.791  0.4462 -2.2059  2.0212
 7767TIP3   OH239872   4.613   1.289   2.795 -0.0938  0.0508  0.2965
 7767TIP3    H139873   4.601   1.368   2.848 -1.1908  0.6667 -0.8279
 7767TIP3    H239874   4.553   1.225   2.834 -0.0505  0.1280  0.4931
 7768TIP3   OH239875   2.391   2.562   0.079  0.1874 -0.3014  0.3336
 7768TIP3    H139876   2.311   2.510   0.078  0.1071 -0.1966 -1.0826
 7768TIP3    H239877   2.413   2.574  -0.014  1.6429 -0.0202  0.6929
 7769TIP3   OH239878   3.492   1.631   9.286 -0.2020 -0.1244 -0.1786
 7769TIP3    H139879   3.542   1.690   9.230 -0.8027  1.0733  0.5022
 7769TIP3    H239880   3.555   1.564   9.313  0.2868 -0.2610 -1.6092
 7770TIP3   OH239881   3.846   5.899   9.292  1.0835  0.3861  0.0597
 7770TIP3    H139882   3.932   5.913   9.252  1.0441  0.3570 -0.0342
 7770TIP3    H239883   3.824   5.808   9.272 -0.3232  1.2010 -2.5338
 7771TIP3   OH239884   2.077   4.460   8.139  0.5665  0.7292  0.5973
 7771TIP3    H139885   2.075   4.437   8.046  1.7872  2.0411  0.2129
 7771TIP3    H239886   2.002   4.519   8.150 -0.0537 -0.0470  0.6462
 7772TIP3   OH239887   3.020   5.284   2.465  0.4419  0.3555  0.1725
 7772TIP3    H139888   3.072   5.238   2.531  0.4034 -0.5460 -0.4094
 7772TIP3    H239889   3.085   5.327   2.409  0.6028 -1.0309 -0.7434
 7773TIP3   OH239890   4.524   3.420   8.760  0.0022 -0.9560 -0.6108
 7773TIP3    H139891   4.588   3.481   8.795 -1.3492 -0.7921  1.7785
 7773TIP3    H239892   4.575   3.344   8.732  1.3439 -0.2765 -0.0551
 7774TIP3   OH239893   5.982   5.362   0.723 -0.1652 -0.0373 -0.0100
 7774TIP3    H139894   5.894   5.342   0.693 -0.3892  2.3951 -1.2141
 7774TIP3    H239895   6.037   5.347   0.646  0.0649  1.0414 -0.0616
 7775TIP3   OH239896   1.448   5.749   0.312 -1.0104  1.0933  0.1565
 7775TIP3    H139897   1.510   5.709   0.373 -1.4129 -0.3927 -0.3799
 7775TIP3    H239898   1.497   5.761   0.231 -0.7413  2.2102  0.4682
 7776TIP3   OH239899   2.345   0.925   0.225  0.2521  0.0708 -0.1233
 7776TIP3    H139900   2.412   0.992   0.218 -0.1247  0.6517  1.3093
 7776TIP3    H239901   2.393   0.844   0.242  0.6051  0.5808  1.4872
 7777TIP3   OH239902   4.252   6.011   7.875  0.0362  0.0016 -0.3424
 7777TIP3    H139903   4.294   6.089   7.836  1.5206  0.8408  2.5909
 7777TIP3    H239904   4.167   6.042   7.905  0.1785  0.2222 -0.1587
 7778TIP3   OH239905   1.021   4.718   0.540 -0.2752  0.3206 -0.3452
 7778TIP3    H139906   1.009   4.698   0.447 -2.0087 -0.0604 -0.0738
 7778TIP3    H239907   0.966   4.654   0.585  1.1388  0.0005  1.0041
 7779TIP3   OH239908   2.467   2.451   8.333 -0.6822  0.5632  0.1682
 7779TIP3    H139909   2.475   2.449   8.238 -0.1499  0.0978  0.2170
 7779TIP3    H239910   2.555   2.470   8.365 -0.7442  0.1852  0.5817
 7780TIP3   OH239911   3.988   3.384   1.110  1.0263 -0.2740 -0.4114
 7780TIP3    H139912   3.928   3.455   1.086  1.0297  0.5075  1.6996
 7780TIP3    H239913   4.070   3.405   1.065  0.6635  0.3857 -0.7698
 7781TIP3   OH239914   1.783   5.008   0.106  0.0515 -0.7335  0.2254
 7781TIP3    H139915   1.874   5.037   0.107 -0.4130  0.8197  0.7823
 7781TIP3    H239916   1.747   5.043   0.025 -0.3991 -0.0963  0.6866
 7782TIP3   OH239917   3.843   5.409   8.230 -0.2514 -0.2575 -0.0667
 7782TIP3    H139918   3.824   5.349   8.158  1.6090  0.0384 -0.8649
 7782TIP3    H239919   3.880   5.353   8.299 -3.9217 -0.8940  1.6327
 7783TIP3   OH239920   5.144   3.760   2.888 -0.4261  0.3287  0.1351
 7783TIP3    H139921   5.126   3.723   2.801 -1.7619  0.3222  0.3804
 7783TIP3    H239922   5.099   3.701   2.948 -1.2224  1.4262  0.6572
 7784TIP3   OH239923   2.593   5.997   7.774 -0.7799  0.3106  0.1493
 7784TIP3    H139924   2.599   5.931   7.843  0.6375  0.1806 -0.0532
 7784TIP3    H239925   2.649   5.963   7.704  0.5572  2.0094  0.3109
 7785TIP3   OH239926   3.628   5.396   1.107  0.2641  0.0079 -0.5284
 7785TIP3    H139927   3.631   5.457   1.181 -0.6147  0.9125 -1.2120
 7785TIP3    H239928   3.612   5.451   1.031  1.0628 -0.9231 -1.3944
 7786TIP3   OH239929   5.714   2.033   2.297 -0.3509  0.1615 -0.6997
 7786TIP3    H139930   5.699   2.011   2.205  0.3672  1.5429 -1.1837
 7786TIP3    H239931   5.704   2.128   2.301 -3.3080 -0.1110  1.2556
 7787TIP3   OH239932   1.661   6.167   0.042 -0.2611  0.4306 -0.3493
 7787TIP3    H139933   1.636   6.120  -0.037 -2.7284  2.1059 -0.6807
 7787TIP3    H239934   1.728   6.229   0.014  0.3403 -0.3616 -0.6738
 7788TIP3   OH239935   3.378   3.703   2.609 -0.3411 -0.4179 -0.4361
 7788TIP3    H139936   3.297   3.651   2.605 -0.6022 -0.0135 -0.4931
 7788TIP3    H239937   3.433   3.668   2.539 -0.0382 -1.3990  0.2673
 7789TIP3   OH239938   5.142   2.217   0.335 -0.4594 -0.2024 -0.6453
 7789TIP3    H139939   5.177   2.153   0.272 -0.3538 -0.2887 -0.4984
 7789TIP3    H239940   5.097   2.165   0.401 -1.8635 -0.0324 -1.4321
 7790TIP3   OH239941   2.642   0.334   2.341  0.2850 -0.3548  0.2917
 7790TIP3    H139942   2.678   0.416   2.306 -0.2498  0.3333  1.2934
 7790TIP3    H239943   2.550   0.336   2.314  0.4497 -1.0359 -0.3683
 7791TIP3   OH239944   1.969   6.167   8.203 -0.1907 -0.0830  0.2684
 7791TIP3    H139945   1.942   6.106   8.272 -0.9183  1.4260  1.4013
 7791TIP3    H239946   1.888   6.187   8.156 -0.2181  0.9054  0.6981
 7792TIP3   OH239947   2.812   2.518   7.393  0.6214  0.3345  0.0392
 7792TIP3    H139948   2.752   2.574   7.343  0.7663 -0.6736 -1.3313
 7792TIP3    H239949   2.888   2.508   7.336  1.3860  0.2101  1.0442
 7793TIP3   OH239950   5.406   2.155   2.468  0.3771 -0.2634 -0.3240
 7793TIP3    H139951   5.478   2.130   2.526  0.5591  0.7305 -0.1013
 7793TIP3    H239952   5.329   2.110   2.504  0.3694  0.8069  1.0807
 7794TIP3   OH239953   3.036   6.129   6.136 -0.2631  0.1991 -0.4768
 7794TIP3    H139954   3.101   6.196   6.115  0.1363  0.4047  1.2461
 7794TIP3    H239955   2.953   6.176   6.140 -0.4017  0.0937 -1.8354
 7795TIP3   OH239956   3.926   1.210   7.986 -0.4341 -0.3174  0.0132
 7795TIP3    H139957   3.849   1.189   7.933 -0.8280  1.3295 -0.1082
 7795TIP3    H239958   3.961   1.290   7.947  1.6811 -1.3025 -0.2652
 7796TIP3   OH239959   4.943   1.853   8.912 -0.1971 -0.5900 -0.3928
 7796TIP3    H139960   4.942   1.769   8.867 -2.9905 -0.0645 -1.5469
 7796TIP3    H239961   4.853   1.885   8.906  0.7303  2.4992 -0.0084
 7797TIP3   OH239962   0.762   6.286   1.645 -0.0047  0.4618 -0.5641
 7797TIP3    H139963   0.798   6.207   1.685  0.9100  1.6834  1.1555
 7797TIP3    H239964   0.839   6.336   1.618 -0.5108  1.4807 -0.1582
 7798TIP3   OH239965   1.359   5.907   0.533 -0.2377  0.0131  0.1560
 7798TIP3    H139966   1.380   5.848   0.461  1.5214 -3.5533  3.2624
 7798TIP3    H239967   1.399   5.990   0.508 -0.4136 -0.7738 -3.2307
 7799TIP3   OH239968   6.435   2.066   7.860 -0.0491 -0.6970  0.2002
 7799TIP3    H139969   6.457   2.142   7.913  0.0535 -1.0053  0.6061
 7799TIP3    H239970   6.342   2.077   7.841  0.0433 -0.2965 -0.0317
 7800TIP3   OH239971   4.074   3.380   0.320 -0.1839  0.0358 -0.0568
 7800TIP3    H139972   4.050   3.465   0.283  1.2674  0.1886 -0.7194
 7800TIP3    H239973   4.118   3.401   0.402  0.2481 -0.0646 -0.2604
 7801TIP3   OH239974   0.801   2.148   8.632  0.3845  0.4384 -0.0282
 7801TIP3    H139975   0.854   2.071   8.651  0.2284 -0.1121 -1.6817
 7801TIP3    H239976   0.726   2.115   8.584  0.0194  1.5561 -0.2571
 7802TIP3   OH239977   0.325   5.418   1.559 -0.1263  0.6922  0.2835
 7802TIP3    H139978   0.273   5.365   1.498 -1.5900  1.5721  0.7438
 7802TIP3    H239979   0.391   5.459   1.503 -1.2954  1.3012 -0.6948
 7803TIP3   OH239980   3.852   1.150   6.994 -0.7155 -0.1965 -0.1009
 7803TIP3    H139981   3.807   1.169   6.912  1.6676  1.4362 -1.1481
 7803TIP3    H239982   3.903   1.229   7.013  0.8941 -1.5145  1.4951
 7804TIP3   OH239983   5.203   6.043   8.229  0.8409 -0.3708 -0.3454
 7804TIP3    H139984   5.265   5.970   8.237  0.7742 -0.4114 -0.1839
 7804TIP3    H239985   5.241   6.100   8.162  0.4309 -1.0100 -1.1284
 7805TIP3   OH239986   0.715   4.287  -0.001  0.8397  0.0713  0.0041
 7805TIP3    H139987   0.706   4.192  -0.006  1.4034 -0.1326  2.0113
 7805TIP3    H239988   0.652   4.313   0.066  0.7055  1.1352 -0.5141
 7806TIP3   OH239989   2.150   1.094   8.292 -0.3478  0.2619 -0.6002
 7806TIP3    H139990   2.090   1.104   8.366 -1.1458 -2.6411 -0.7335
 7806TIP3    H239991   2.112   1.146   8.222  0.1903  2.7212  0.8012
 7807TIP3   OH239992   0.337   3.214   8.490  0.5678 -0.0066 -0.0059
 7807TIP3    H139993   0.362   3.123   8.505 -0.6090 -1.0262 -3.3053
 7807TIP3    H239994   0.417   3.256   8.459  0.8225 -0.2480  0.3168
 7808TIP3   OH239995   1.915   3.228   8.113 -0.0186 -0.1578  0.3099
 7808TIP3    H139996   1.899   3.323   8.112 -0.9934 -0.2791  1.9921
 7808TIP3    H239997   1.947   3.209   8.025 -0.6074  1.6044 -0.3334
 7809TIP3   OH239998   6.146   4.371   3.038  0.7769 -0.3380  0.1163
 7809TIP3    H139999   6.127   4.316   3.115 -3.4350 -0.0555 -0.4811
 7809TIP3    H240000   6.102   4.454   3.057  0.7539  0.1915 -2.0538
 7810TIP3   OH240001   1.676   0.670   5.898  0.5603  0.1852  0.3980
 7810TIP3    H140002   1.731   0.721   5.958  0.2781  1.0853 -0.1017
 7810TIP3    H240003   1.588   0.677   5.935  0.3798  0.7740 -0.1440
 7811TIP3   OH240004   1.294   0.603   1.756  0.2807  0.6021  0.0103
 7811TIP3    H140005   1.376   0.568   1.791  0.8063  1.4785 -0.3292
 7811TIP3    H240006   1.255   0.651   1.829 -0.0312  0.0254  0.2284
 7812TIP3   OH240007   6.474   4.969   1.764  0.2071 -0.0926 -0.1567
 7812TIP3    H140008   6.431   4.889   1.792  1.5706 -0.8783 -0.2182
 7812TIP3    H240009   6.406   5.037   1.771 -1.6580 -1.5861 -2.1694
 7813TIP3   OH240010   4.362   4.195   1.088 -0.1978 -0.6386  0.6163
 7813TIP3    H140011   4.361   4.226   0.998 -2.3089 -0.2273  0.7314
 7813TIP3    H240012   4.350   4.275   1.140  1.5109 -0.7946  1.3418
 7814TIP3   OH240013   4.953   1.013   2.487  0.3841  1.1502 -0.1956
 7814TIP3    H140014   4.926   1.065   2.563  1.9901 -0.7422  1.7921
 7814TIP3    H240015   4.881   0.950   2.476  1.0303  0.1281  1.1161
 7815TIP3   OH240016   3.070   2.767   7.508  0.2871  0.6525 -0.6340
 7815TIP3    H140017   3.072   2.717   7.426 -2.1777 -1.4347  0.4420
 7815TIP3    H240018   3.002   2.833   7.495 -1.8237 -1.2071  0.4239
 7816TIP3   OH240019   6.104   3.710   1.037  0.2302  0.3078  0.2322
 7816TIP3    H140020   6.027   3.660   1.009  0.6824  0.1678 -0.7720
 7816TIP3    H240021   6.138   3.662   1.113  0.2396 -0.5054 -0.2793
 7817TIP3   OH240022   0.542   1.544   7.087  0.1252  0.6200 -0.0484
 7817TIP3    H140023   0.565   1.505   7.003  0.6326 -0.5814  0.6121
 7817TIP3    H240024   0.471   1.606   7.067  0.9551  1.1403 -1.4849
 7818TIP3   OH240025   0.483   3.030   8.727 -0.2481  0.4490 -0.0836
 7818TIP3    H140026   0.548   3.015   8.796 -1.0194 -0.5491  0.4571
 7818TIP3    H240027   0.462   2.942   8.694 -1.6867  0.6866  0.1094
 7819TIP3   OH240028   2.086   3.605   8.261 -0.0685  0.2496  0.7986
 7819TIP3    H140029   2.039   3.606   8.178 -1.6404  1.4021  1.6503
 7819TIP3    H240030   2.106   3.697   8.279  2.7999 -0.1899  0.3866
 7820TIP3   OH240031   1.713   1.474   8.284 -0.3818  0.4878  0.4559
 7820TIP3    H140032   1.705   1.562   8.247 -0.1537  0.7926  1.1303
 7820TIP3    H240033   1.747   1.421   8.212  1.2065  1.3254  0.5546
 7821TIP3   OH240034   4.289   2.206   0.208  0.2866  0.4049 -0.2165
 7821TIP3    H140035   4.293   2.193   0.302  1.7092 -0.5433 -0.3800
 7821TIP3    H240036   4.339   2.133   0.171 -1.1843  0.1265 -1.7711
 7822TIP3   OH240037   3.113   1.536   1.881 -0.0149 -0.2393 -0.0671
 7822TIP3    H140038   3.057   1.509   1.953 -0.3482 -1.2759 -0.6927
 7822TIP3    H240039   3.091   1.477   1.809  1.2696 -0.1126 -0.6018
 7823TIP3   OH240040   0.144   4.761   8.523 -0.0213  0.1399  0.1056
 7823TIP3    H140041   0.058   4.718   8.521 -0.1342  0.3188  0.7946
 7823TIP3    H240042   0.195   4.709   8.585 -0.5740  1.7066  1.9805
 7824TIP3   OH240043   3.646   4.748   0.956  0.2959  0.7905 -0.3775
 7824TIP3    H140044   3.727   4.799   0.962 -0.2844  2.0325 -2.1707
 7824TIP3    H240045   3.605   4.757   1.042  2.5095 -0.7864  0.9668
 7825TIP3   OH240046   3.232   3.083   2.859  0.1633 -0.3885 -0.3926
 7825TIP3    H140047   3.255   3.002   2.903 -0.5472 -2.0604 -2.8770
 7825TIP3    H240048   3.317   3.123   2.836  0.5292 -1.2291 -0.5199
 7826TIP3   OH240049   2.073   2.712   7.788  0.1346  0.2641  0.6411
 7826TIP3    H140050   2.021   2.764   7.849  1.0418  0.3807  1.3545
 7826TIP3    H240051   2.090   2.631   7.836 -1.0215 -0.5867 -0.3463
 7827TIP3   OH240052   6.088   4.600   1.995 -0.1487 -0.1422  0.0429
 7827TIP3    H140053   6.043   4.518   1.975 -0.1696 -0.6243  1.8932
 7827TIP3    H240054   6.029   4.646   2.055 -0.5631  1.6964 -1.6349
 7828TIP3   OH240055   0.334   1.571   7.355 -0.9229 -0.2757 -0.1789
 7828TIP3    H140056   0.343   1.638   7.287 -0.4793 -0.8928 -0.7371
 7828TIP3    H240057   0.353   1.489   7.310  0.2164 -0.6090  0.8779
 7829TIP3   OH240058   2.351   4.676   8.652  0.5109 -0.7201 -0.3045
 7829TIP3    H140059   2.327   4.584   8.662 -1.1232 -0.3090 -0.2693
 7829TIP3    H240060   2.272   4.719   8.620  1.4891  0.5387 -1.1732
 7830TIP3   OH240061   1.592   4.798   2.051  0.4548  0.2991  0.0226
 7830TIP3    H140062   1.608   4.704   2.053 -1.3346 -0.0298  1.1741
 7830TIP3    H240063   1.676   4.836   2.025  1.3670 -1.5703  0.0644
 7831TIP3   OH240064   0.056   0.692   8.627  0.1741  0.1699  0.2425
 7831TIP3    H140065   0.076   0.782   8.654 -3.2336  0.7017  1.5153
 7831TIP3    H240066  -0.022   0.700   8.572 -0.0598 -1.9908  0.1754
 7832TIP3   OH240067   0.647   2.083   1.207 -0.4999 -1.1584 -0.2406
 7832TIP3    H140068   0.612   2.012   1.154 -2.1872 -0.2499 -0.4036
 7832TIP3    H240069   0.630   2.057   1.297  1.5262 -2.2698 -0.1322
 7833TIP3   OH240070   4.871   4.412   7.671 -0.2946  0.4808  0.2528
 7833TIP3    H140071   4.912   4.369   7.746 -1.6662  0.9302  1.3068
 7833TIP3    H240072   4.872   4.505   7.693  0.0182  0.6957 -0.6594
 7834TIP3   OH240073   2.983   3.828   8.988  0.4047  0.5070  0.0044
 7834TIP3    H140074   3.078   3.816   8.992  0.3530  0.1072  0.1042
 7834TIP3    H240075   2.954   3.768   8.919  0.2534  0.8197 -0.2059
 7835TIP3   OH240076   4.249   0.886   7.818  0.1953  0.8553 -0.1188
 7835TIP3    H140077   4.341   0.865   7.799  0.4796  2.4675 -0.7081
 7835TIP3    H240078   4.247   0.900   7.912  0.2217 -0.5887  0.1260
 7836TIP3   OH240079   2.623   4.598   8.342 -0.1454 -0.2750  1.1278
 7836TIP3    H140080   2.549   4.657   8.352  0.1136  0.0347  1.2377
 7836TIP3    H240081   2.700   4.656   8.338  0.2229 -0.6393  2.4126
 7837TIP3   OH240082   3.872   0.185   9.183  0.1707  0.3904  0.1809
 7837TIP3    H140083   3.846   0.217   9.097 -0.1730 -0.4217 -0.0300
 7837TIP3    H240084   3.801   0.212   9.242  0.6073  1.3068  0.2951
 7838TIP3   OH240085   3.039   4.189   7.288 -0.1664 -0.1844 -0.0465
 7838TIP3    H140086   2.951   4.225   7.300  0.7147  1.4585  2.3135
 7838TIP3    H240087   3.072   4.233   7.210 -1.2008 -0.3621 -0.6053
 7839TIP3   OH240088   4.228   3.912   7.228  0.3833  0.0872  0.1689
 7839TIP3    H140089   4.151   3.960   7.260  0.1725 -0.2117  0.1192
 7839TIP3    H240090   4.302   3.951   7.274 -0.0234 -1.0617  1.8946
 7840TIP3   OH240091   4.647   0.549   9.203 -0.7296  0.3365  0.0203
 7840TIP3    H140092   4.705   0.527   9.275 -2.2567 -1.6330  0.7533
 7840TIP3    H240093   4.561   0.516   9.231 -1.4083 -0.3721 -2.6152
 7841TIP3   OH240094   2.671   4.118   8.863 -0.0463 -0.6507  0.6076
 7841TIP3    H140095   2.582   4.123   8.898 -0.4387 -0.9753 -0.3233
 7841TIP3    H240096   2.719   4.065   8.926 -0.7220 -1.1697  0.6905
 7842TIP3   OH240097   1.972   5.338   2.750 -0.0464 -0.3580 -0.5064
 7842TIP3    H140098   1.999   5.257   2.794  1.6649 -0.1481 -1.0894
 7842TIP3    H240099   1.893   5.313   2.702 -1.2412 -0.9052  1.6092
 7843TIP3   OH240100   3.743   5.112   0.359  0.1822 -0.7427 -0.0067
 7843TIP3    H140101   3.782   5.137   0.443  1.6741  0.3494 -0.9850
 7843TIP3    H240102   3.665   5.167   0.351  0.6727 -0.0155  0.1468
 7844TIP3   OH240103   1.776   5.368   0.029 -0.0661  0.1177  0.1171
 7844TIP3    H140104   1.704   5.414   0.073  0.7852  1.6122  0.0118
 7844TIP3    H240105   1.747   5.276   0.026 -1.1857  0.3775  1.6432
 7845TIP3   OH240106   3.102   2.537   1.087 -0.9906  0.0774  0.3647
 7845TIP3    H140107   3.151   2.480   1.146 -1.8669 -0.5026  0.5512
 7845TIP3    H240108   3.073   2.610   1.143  0.3653  0.8699  0.0646
 7846TIP3   OH240109   5.544   6.031   1.982 -0.4805 -0.2740  0.2577
 7846TIP3    H140110   5.591   6.063   2.059  0.1132 -1.1818  0.2896
 7846TIP3    H240111   5.597   6.057   1.908 -0.6906 -0.0214  0.1926
 7847TIP3   OH240112   5.450   3.924   8.118 -0.3978  0.2483  0.4385
 7847TIP3    H140113   5.397   3.892   8.190 -0.1941  2.0668  1.4340
 7847TIP3    H240114   5.525   3.863   8.115 -0.8567 -0.3697  1.1453
 7848TIP3   OH240115   4.188   0.640   1.921 -0.3632 -0.3637 -0.1396
 7848TIP3    H140116   4.243   0.681   1.854 -0.9560  0.2508 -0.2553
 7848TIP3    H240117   4.237   0.651   2.002 -0.1481 -0.1442 -0.2982
 7849TIP3   OH240118   0.809   2.301   2.885  0.1919 -0.5325 -0.4025
 7849TIP3    H140119   0.717   2.312   2.908  0.1218 -0.6141 -0.6452
 7849TIP3    H240120   0.849   2.386   2.907  0.2563 -0.8084  0.6255
 7850TIP3   OH240121   0.825   3.996   2.032  0.2797  0.0207  0.3192
 7850TIP3    H140122   0.808   4.010   1.938  2.3502  1.3425  0.0813
 7850TIP3    H240123   0.830   3.901   2.041 -0.9496 -0.1732 -0.6897
 7851TIP3   OH240124   5.316   2.757   0.723 -0.1657 -0.1262 -0.1838
 7851TIP3    H140125   5.398   2.707   0.728 -1.0048 -1.5759 -0.1820
 7851TIP3    H240126   5.303   2.771   0.629 -0.9564 -1.7905 -0.3688
 7852TIP3   OH240127   6.106   0.088   1.390 -0.6080  0.0521  0.3020
 7852TIP3    H140128   6.079   0.180   1.391 -0.9967 -0.0492 -0.2686
 7852TIP3    H240129   6.095   0.058   1.480 -0.0029  0.6997  0.5976
 7853TIP3   OH240130   1.945   0.884   9.004  0.2401  0.4549  0.0490
 7853TIP3    H140131   1.907   0.966   9.036 -2.1371 -1.0281  1.2474
 7853TIP3    H240132   1.952   0.897   8.909  1.1167  2.4526  0.3171
 7854TIP3   OH240133   0.025   2.148   9.256 -0.1017 -0.2388 -0.3452
 7854TIP3    H140134  -0.026   2.225   9.280 -1.4099 -0.4768 -2.1835
 7854TIP3    H240135   0.079   2.177   9.183  0.1086 -0.8125 -0.4220
 7855TIP3   OH240136   1.150   1.040   0.068 -0.7539 -0.5684 -0.2126
 7855TIP3    H140137   1.122   0.954   0.037 -1.7647  0.0244 -0.9777
 7855TIP3    H240138   1.072   1.076   0.110  0.3123 -0.9733  2.2859
 7856TIP3   OH240139   5.291   2.672   8.646 -0.6712 -0.2004  0.1184
 7856TIP3    H140140   5.319   2.581   8.637  3.4187  0.8539  0.0927
 7856TIP3    H240141   5.234   2.672   8.723  1.0428 -2.5026  1.5148
 7857TIP3   OH240142   3.830   6.385   7.927  0.0712  0.2379 -1.1927
 7857TIP3    H140143   3.806   6.475   7.949 -2.0589 -0.7577  1.0519
 7857TIP3    H240144   3.833   6.340   8.011  2.2540 -1.5904 -2.1459
 7858TIP3   OH240145   3.285   0.428   1.284  0.2067 -0.3341 -0.5661
 7858TIP3    H140146   3.225   0.391   1.348 -1.2090  1.1422 -0.9797
 7858TIP3    H240147   3.369   0.432   1.330 -0.4785 -0.5322  0.7392
 7859TIP3   OH240148   5.170   4.791   9.162  0.0504  0.3507 -0.3474
 7859TIP3    H140149   5.131   4.811   9.247  0.1932 -0.3600 -0.1112
 7859TIP3    H240150   5.100   4.751   9.111  0.3085 -0.4001 -0.1203
 7860TIP3   OH240151   1.461   4.731   8.114 -0.1411  0.0398  0.3575
 7860TIP3    H140152   1.514   4.718   8.193 -0.9205 -0.3660  0.8272
 7860TIP3    H240153   1.459   4.644   8.072 -0.7670 -0.0565  0.5678
 7861TIP3   OH240154   0.310   2.537   1.920  0.5610  0.4399  0.4427
 7861TIP3    H140155   0.251   2.467   1.948  1.2912  0.1744  1.3956
 7861TIP3    H240156   0.262   2.584   1.852  0.6171 -1.9492 -1.4084
 7862TIP3   OH240157   2.023   2.307   2.848 -0.3162  0.6671  0.0430
 7862TIP3    H140158   2.101   2.358   2.871  0.0407  0.3033 -0.3575
 7862TIP3    H240159   1.955   2.342   2.905  0.6177 -0.4596  1.9628
 7863TIP3   OH240160   3.125   1.434   5.933 -0.1380  0.2978  0.3731
 7863TIP3    H140161   3.044   1.442   5.883  0.8968 -0.2879 -1.5341
 7863TIP3    H240162   3.108   1.480   6.015 -2.0809  0.9708 -0.3500
 7864TIP3   OH240163   6.056   2.582   7.333  0.2186 -0.5895  0.6477
 7864TIP3    H140164   6.086   2.584   7.424 -0.3090  2.4130  0.8822
 7864TIP3    H240165   5.962   2.601   7.339  0.1707 -0.4041 -0.5255
 7865TIP3   OH240166   1.242   0.044   1.909  0.5806  0.2295 -0.8728
 7865TIP3    H140167   1.328   0.031   1.868  0.6783 -1.7595 -0.1448
 7865TIP3    H240168   1.261   0.044   2.003  0.0798  2.5022 -0.7155
 7866TIP3   OH240169   4.715   3.929   9.252  0.1411  0.2436  0.8949
 7866TIP3    H140170   4.726   4.020   9.223  1.8592  0.6089  2.4444
 7866TIP3    H240171   4.679   3.936   9.340 -2.0507 -0.7177  0.1484
 7867TIP3   OH240172   1.721   5.126   9.295 -0.2284 -0.0533  0.1273
 7867TIP3    H140173   1.648   5.171   9.253 -1.1956 -3.7112 -2.7207
 7867TIP3    H240174   1.791   5.129   9.230  1.4824  1.5010  1.9304
 7868TIP3   OH240175   2.458   3.340   2.046 -0.2259 -0.7751  0.1856
 7868TIP3    H140176   2.491   3.325   1.957 -0.0316  0.3597  0.0570
 7868TIP3    H240177   2.363   3.349   2.035 -0.2525 -1.0691  0.1573
 7869TIP3   OH240178   5.889   1.340   9.372 -0.1290 -0.6051  0.2588
 7869TIP3    H140179   5.919   1.373   9.288 -1.7586  1.1238  0.2943
 7869TIP3    H240180   5.958   1.279   9.400  1.8296  0.9315 -0.9732
 7870TIP3   OH240181   0.122   4.040   1.078  0.0313 -0.2208 -0.0867
 7870TIP3    H140182   0.196   4.086   1.038  0.1947 -0.1857  0.2515
 7870TIP3    H240183   0.049   4.054   1.017  0.0979  0.4304 -0.0187
 7871TIP3   OH240184   4.789   3.162   9.181 -0.4084 -0.2099  0.4211
 7871TIP3    H140185   4.843   3.241   9.186  2.0496 -1.7574 -0.1549
 7871TIP3    H240186   4.760   3.159   9.090 -0.2243 -0.1596  0.3608
 7872TIP3   OH240187   4.105   2.228   0.698 -0.0794  0.1340 -0.2883
 7872TIP3    H140188   4.166   2.173   0.648  0.2329 -2.8254  2.9949
 7872TIP3    H240189   4.033   2.169   0.721 -0.8392  1.6853  1.5878
 7873TIP3   OH240190   5.360   1.967   2.189  0.6125 -0.1948  0.3964
 7873TIP3    H140191   5.392   2.055   2.210 -0.7517  0.3764  0.1839
 7873TIP3    H240192   5.287   1.953   2.249  0.9704 -1.2968  0.5968
 7874TIP3   OH240193   5.066   0.942   8.838  0.1487  0.8632  0.0861
 7874TIP3    H140194   5.003   1.004   8.876 -0.2972  0.6908 -0.3599
 7874TIP3    H240195   5.047   0.859   8.882 -0.3548  0.6679 -0.4865
 7875TIP3   OH240196   0.196   3.742   1.071 -0.0818  0.4901 -0.5475
 7875TIP3    H140197   0.104   3.738   1.097  0.7881  0.8579  3.1993
 7875TIP3    H240198   0.230   3.820   1.116  2.5273 -0.9663  0.2340
 7876TIP3   OH240199   0.996   1.316   1.798 -0.2177 -0.0626 -0.1551
 7876TIP3    H140200   0.957   1.340   1.882  0.3311 -1.0322  0.3883
 7876TIP3    H240201   1.068   1.258   1.820  1.6835  1.7814 -1.1154
 7877TIP3   OH240202   0.849   2.181   2.257  0.0481 -0.1450  0.1840
 7877TIP3    H140203   0.895   2.097   2.267  2.6309  1.2362  1.0115
 7877TIP3    H240204   0.757   2.160   2.275  0.9459 -2.3589  3.1154
 7878TIP3   OH240205   2.884   2.267   8.322 -0.0677  0.4376 -0.3416
 7878TIP3    H140206   2.808   2.251   8.266  0.6737  0.3631 -1.3638
 7878TIP3    H240207   2.937   2.187   8.313  0.0518  0.4179  0.4884
 7879TIP3   OH240208   4.714   3.186   8.908 -0.1302 -1.2584  0.6732
 7879TIP3    H140209   4.639   3.137   8.873 -0.8462 -1.6382  2.6344
 7879TIP3    H240210   4.771   3.200   8.832 -1.3931 -2.4084 -0.5384
 7880TIP3   OH240211   1.449   2.020   1.526 -0.1057  0.2518 -0.5125
 7880TIP3    H140212   1.501   2.100   1.521  0.7497 -0.2353  0.2608
 7880TIP3    H240213   1.422   2.014   1.618 -0.9969  0.1563 -0.7708
 7881TIP3   OH240214   1.614   6.275   0.875 -0.0991  0.4498 -0.3089
 7881TIP3    H140215   1.664   6.353   0.897 -0.6532  0.7637 -0.1313
 7881TIP3    H240216   1.648   6.248   0.789  0.1506  0.8399 -0.3355
 7882TIP3   OH240217   6.164   5.529   7.949 -0.3688  0.4163  0.2848
 7882TIP3    H140218   6.089   5.543   8.008 -0.8455  0.3975 -0.3009
 7882TIP3    H240219   6.193   5.617   7.926 -1.2323  0.4626 -0.7375
 7883TIP3   OH240220   5.819   2.731   7.531 -0.7676  0.2612  0.4072
 7883TIP3    H140221   5.792   2.822   7.529 -3.2114 -0.3631  1.2801
 7883TIP3    H240222   5.738   2.682   7.544  0.4588 -2.0529 -0.0579
 7884TIP3   OH240223   5.661   4.576   0.939 -0.6634  0.2069  0.6645
 7884TIP3    H140224   5.650   4.667   0.911 -3.1897  0.5256  2.3633
 7884TIP3    H240225   5.633   4.524   0.864  1.1179  0.7595 -0.4433
 7885TIP3   OH240226   4.555   5.253   0.095  0.0814  0.3182  0.4516
 7885TIP3    H140227   4.460   5.242   0.088 -0.0189  0.7441  1.0683
 7885TIP3    H240228   4.589   5.222   0.011 -0.4585 -1.5088  0.8548
 7886TIP3   OH240229   2.303   1.210   8.888  0.7157  0.7208  0.3979
 7886TIP3    H140230   2.320   1.211   8.794  1.6366 -0.5795  0.5176
 7886TIP3    H240231   2.356   1.281   8.924 -0.6460  2.0788 -0.1862
 7887TIP3   OH240232   5.972   3.338   0.486  0.2778 -0.0516  0.4323
 7887TIP3    H140233   6.007   3.426   0.500  3.2250 -0.9100 -0.9097
 7887TIP3    H240234   5.936   3.341   0.397 -0.2819 -0.0416  0.6521
 7888TIP3   OH240235   1.385   1.539   1.330 -0.2338  0.0401  0.1305
 7888TIP3    H140236   1.336   1.536   1.248  0.3918  0.3807 -0.2662
 7888TIP3    H240237   1.388   1.631   1.354  1.1148  0.1686 -0.4284
 7889TIP3   OH240238   5.772   0.694   0.155 -0.0525  0.2927 -0.0269
 7889TIP3    H140239   5.685   0.656   0.144 -0.1247 -0.3331  2.2333
 7889TIP3    H240240   5.757   0.789   0.157 -0.7586  0.1768  0.7278
 7890TIP3   OH240241   3.461   1.280   0.466  0.4204  0.0270  0.3620
 7890TIP3    H140242   3.459   1.343   0.395 -0.6912 -0.5315 -0.1218
 7890TIP3    H240243   3.555   1.269   0.485  0.7312  0.2585 -0.9261
 7891TIP3   OH240244   1.208   4.244   7.692  0.1840  0.0285 -0.1091
 7891TIP3    H140245   1.153   4.233   7.615  0.9845  0.4959 -0.7760
 7891TIP3    H240246   1.189   4.333   7.723 -0.7987 -0.4759  0.7910
 7892TIP3   OH240247   5.597   2.853   1.549  0.4676 -0.1452 -0.3012
 7892TIP3    H140248   5.572   2.791   1.481  0.2627 -2.3697  1.6611
 7892TIP3    H240249   5.657   2.914   1.506 -0.0553 -1.1189 -2.5534
 7893TIP3   OH240250   4.653   4.158   1.913  0.0111 -0.3586  0.5260
 7893TIP3    H140251   4.649   4.178   1.819  0.2661  2.3134  1.0058
 7893TIP3    H240252   4.624   4.067   1.919 -1.1045 -0.2696 -2.0228
 7894TIP3   OH240253   2.396   4.421   1.359 -0.1628  1.2963  0.0976
 7894TIP3    H140254   2.364   4.357   1.423  0.1183  1.1597  0.1028
 7894TIP3    H240255   2.376   4.382   1.274  1.6270  0.3313  0.0594
 7895TIP3   OH240256   4.739   1.497   9.197 -0.4541 -0.1835 -0.3280
 7895TIP3    H140257   4.725   1.549   9.118 -1.5683  0.5569  0.3406
 7895TIP3    H240258   4.764   1.560   9.264 -0.4973 -0.6804  0.1618
 7896TIP3   OH240259   5.762   1.515   6.728  0.1365 -0.2511  0.0297
 7896TIP3    H140260   5.836   1.576   6.726 -1.0492  1.2474 -0.2419
 7896TIP3    H240261   5.711   1.535   6.650  0.1492 -2.2159 -0.5240
 7897TIP3   OH240262   2.852   5.469   7.449  0.1635  0.4237  0.1491
 7897TIP3    H140263   2.825   5.399   7.389 -1.0152  1.0214 -0.0395
 7897TIP3    H240264   2.823   5.550   7.407  0.7957  0.9745  0.7531
 7898TIP3   OH240265   5.712   0.422   8.996  0.4341  0.8972  0.6417
 7898TIP3    H140266   5.783   0.469   8.952  0.2406  0.2913 -0.3626
 7898TIP3    H240267   5.641   0.486   9.002 -0.0204  0.6308 -1.2109
 7899TIP3   OH240268   0.477   4.768   7.149  0.2842  0.3243 -0.1349
 7899TIP3    H140269   0.388   4.749   7.180 -0.2545  3.1769  0.3993
 7899TIP3    H240270   0.534   4.717   7.207 -0.9464  0.2819  1.0989
 7900TIP3   OH240271   5.397   0.725   0.712  0.3417 -0.2297  0.3178
 7900TIP3    H140272   5.356   0.780   0.645 -0.9761  0.9090  1.9779
 7900TIP3    H240273   5.409   0.640   0.669 -0.2728  0.5007 -1.3995
 7901TIP3   OH240274   1.537   4.780   0.928 -0.1077  0.0887  0.2505
 7901TIP3    H140275   1.531   4.711   0.862 -0.3521 -1.4223  1.7720
 7901TIP3    H240276   1.606   4.839   0.895 -0.9595  0.0138 -1.8368
 7902TIP3   OH240277   0.722   0.384   8.941 -0.2406 -0.0315 -0.2496
 7902TIP3    H140278   0.727   0.470   8.899  1.0852 -0.2791 -0.6219
 7902TIP3    H240279   0.697   0.325   8.870 -1.4297  0.0699  0.0643
 7903TIP3   OH240280   2.874   0.542   3.248  0.6646 -0.1828  0.6750
 7903TIP3    H140281   2.866   0.488   3.169 -2.1114  1.0479  0.0138
 7903TIP3    H240282   2.822   0.497   3.314  1.1815 -0.0672  1.1725
 7904TIP3   OH240283   3.291   4.732   7.638 -0.0189 -0.1155  0.2435
 7904TIP3    H140284   3.287   4.757   7.546 -0.5658 -1.5724 -0.1596
 7904TIP3    H240285   3.199   4.724   7.664  0.1104  1.0582  1.1677
 7905TIP3   OH240286   3.016   4.920   0.763 -0.2969 -0.7899 -0.3527
 7905TIP3    H140287   3.111   4.915   0.747  0.1870  0.2461  1.7775
 7905TIP3    H240288   3.003   4.872   0.845 -1.2532  0.7321  0.4339
 7906TIP3   OH240289   5.199   1.749   1.681  0.1601 -0.2808  0.3909
 7906TIP3    H140290   5.177   1.698   1.758  0.8363  0.7574  1.3145
 7906TIP3    H240291   5.224   1.685   1.615 -0.7055 -1.2003  0.9315
 7907TIP3   OH240292   1.025   3.180   7.903  0.2803 -0.4450  0.5591
 7907TIP3    H140293   1.019   3.267   7.943  0.2661 -0.5084  0.6933
 7907TIP3    H240294   0.975   3.123   7.961  0.8628 -0.6761  0.8468
 7908TIP3   OH240295   4.219   3.338   1.727 -0.4480 -0.3341 -0.5784
 7908TIP3    H140296   4.200   3.244   1.725 -2.6302  0.0306 -2.5746
 7908TIP3    H240297   4.312   3.344   1.706  0.0806 -2.0563  1.0219
 7909TIP3   OH240298   3.287   5.581   6.709 -0.3472 -0.1954  0.2129
 7909TIP3    H140299   3.239   5.498   6.700 -0.9603 -0.0058  1.4056
 7909TIP3    H240300   3.236   5.630   6.774 -0.6849  1.6279 -1.3431
 7910TIP3   OH240301   5.452   4.205   8.166  0.1332  0.0100  0.4432
 7910TIP3    H140302   5.450   4.173   8.256  0.8166  0.9769  0.8212
 7910TIP3    H240303   5.459   4.126   8.112  0.3913 -0.5432  1.2763
 7911TIP3   OH240304   0.802   2.476   7.112 -0.1548  0.0547 -0.6492
 7911TIP3    H140305   0.859   2.538   7.067  0.5378 -1.4578 -1.9900
 7911TIP3    H240306   0.841   2.390   7.094 -0.0879 -0.7231  2.5474
 7912TIP3   OH240307   0.093   0.576   6.405  0.0987  0.1647 -0.3380
 7912TIP3    H140308   0.091   0.667   6.433  2.2157  0.0569  0.3015
 7912TIP3    H240309   0.030   0.532   6.463 -0.7704  1.1541 -0.5009
 7913TIP3   OH240310   5.594   4.383   9.204 -0.0173  0.0830 -0.0603
 7913TIP3    H140311   5.533   4.352   9.271  0.3452 -1.5986 -0.4732
 7913TIP3    H240312   5.678   4.389   9.250  0.2095 -0.9697 -0.3132
 7914TIP3   OH240313   2.456   3.020   2.213 -0.0062 -0.4819 -0.2322
 7914TIP3    H140314   2.403   2.978   2.145  1.3073 -0.1472 -1.5275
 7914TIP3    H240315   2.460   2.955   2.283 -0.0500 -1.5244 -1.1679
 7915TIP3   OH240316   3.974   0.760   8.297 -0.0865 -0.2476  0.2334
 7915TIP3    H140317   3.945   0.747   8.207  0.9006  0.5203 -0.2067
 7915TIP3    H240318   3.932   0.841   8.325  0.3377 -0.0057  0.1600
 7916TIP3   OH240319   0.058   4.043   0.375  0.3820 -0.0822 -0.4472
 7916TIP3    H140320   0.082   3.958   0.412  0.0213 -0.8071 -1.7869
 7916TIP3    H240321  -0.030   4.060   0.410  1.5228  1.1218  2.0431
 7917TIP3   OH240322   2.112   5.693   9.015 -0.2376  0.1325 -0.3362
 7917TIP3    H140323   2.187   5.641   8.990 -0.5683 -1.3736  1.5613
 7917TIP3    H240324   2.101   5.676   9.109 -2.4116  0.9784 -0.3718
 7918TIP3   OH240325   4.846   0.157   6.363 -0.5232  0.5127  0.3417
 7918TIP3    H140326   4.891   0.224   6.415 -0.9209  0.2743  1.0032
 7918TIP3    H240327   4.830   0.199   6.278  2.5327  0.0207 -0.5909
 7919TIP3   OH240328   3.163   5.860   7.913  0.4382 -0.0145  0.6206
 7919TIP3    H140329   3.155   5.947   7.951  1.8338 -0.1004  1.1638
 7919TIP3    H240330   3.242   5.864   7.859 -0.0009 -0.6866 -0.1011
 7920TIP3   OH240331   0.003   5.326   7.202 -0.4432 -0.5511 -0.0289
 7920TIP3    H140332   0.029   5.418   7.208  3.1135 -1.3860 -0.0632
 7920TIP3    H240333   0.057   5.281   7.268 -4.1326 -2.3739  2.0744
 7921TIP3   OH240334   6.259   2.182   1.016  0.0333  0.0840  0.1309
 7921TIP3    H140335   6.341   2.230   1.020  0.2889 -0.2801 -0.5356
 7921TIP3    H240336   6.255   2.148   0.926 -0.0867 -1.2016  0.5940
 7922TIP3   OH240337   3.070   6.209   1.317 -0.5459 -0.2836  0.7282
 7922TIP3    H140338   3.101   6.119   1.312 -0.0276 -0.0442 -0.8505
 7922TIP3    H240339   3.106   6.242   1.399  0.4816 -1.0620  0.6090
 7923TIP3   OH240340   5.314   4.879   8.198 -0.9009  0.3218  0.2098
 7923TIP3    H140341   5.355   4.814   8.142 -0.3041  1.4708 -0.7258
 7923TIP3    H240342   5.385   4.910   8.255 -0.9907  0.7071  0.1152
 7924TIP3   OH240343   2.183   1.384   7.990  0.2962 -0.2200 -0.0848
 7924TIP3    H140344   2.248   1.314   7.992  0.2833 -0.2365 -0.2140
 7924TIP3    H240345   2.142   1.375   7.904 -0.0479 -0.3667  0.0945
 7925TIP3   OH240346   6.025   2.977   7.211  0.7147 -0.8357 -0.7469
 7925TIP3    H140347   6.021   3.044   7.280 -0.5729 -1.0233 -0.6063
 7925TIP3    H240348   6.103   2.926   7.232  1.0453 -0.1236 -0.1569
 7926TIP3   OH240349   1.583   6.339   8.789  0.2036 -0.0806 -0.1235
 7926TIP3    H140350   1.658   6.362   8.844  0.4622 -1.8929  0.3618
 7926TIP3    H240351   1.612   6.262   8.739  0.0991  1.6852 -3.1406
 7927TIP3   OH240352   4.722   3.592   8.838 -0.2685 -0.0860 -0.0318
 7927TIP3    H140353   4.710   3.673   8.888 -2.7024 -0.3225 -0.1085
 7927TIP3    H240354   4.810   3.562   8.862  0.2139  1.9116  0.9442
 7928TIP3   OH240355   4.332   5.817   9.122  0.1871  0.8018  0.0085
 7928TIP3    H140356   4.357   5.908   9.103  1.9939  0.6593  1.4645
 7928TIP3    H240357   4.369   5.799   9.208 -2.0704 -0.6355  0.7704
 7929TIP3   OH240358   0.993   3.817   7.132  0.3400 -0.2554  0.1321
 7929TIP3    H140359   0.973   3.906   7.102 -1.4311 -1.4261 -2.5310
 7929TIP3    H240360   0.909   3.783   7.163  0.6532 -1.5032 -0.3472
 7930TIP3   OH240361   3.209   3.684   1.628  0.4651 -0.2122  0.6702
 7930TIP3    H140362   3.293   3.689   1.584  0.8019 -0.0550  1.3100
 7930TIP3    H240363   3.152   3.743   1.578  1.7805  2.7728  2.4084
 7931TIP3   OH240364   1.251   4.629   2.171 -0.0235  0.3791 -0.5524
 7931TIP3    H140365   1.340   4.651   2.197 -0.6411  1.3523  0.8324
 7931TIP3    H240366   1.235   4.683   2.093  0.1347  1.2397  0.0026
 7932TIP3   OH240367   0.460   2.433   0.640  0.3008  1.0447 -0.7840
 7932TIP3    H140368   0.442   2.490   0.565  1.2666 -1.4198 -3.0253
 7932TIP3    H240369   0.378   2.386   0.654  0.4874  0.6133 -1.1262
 7933TIP3   OH240370   0.545   0.807   0.824 -0.2048 -0.2635  0.6376
 7933TIP3    H140371   0.569   0.759   0.903 -0.2339 -0.3026  0.6231
 7933TIP3    H240372   0.457   0.775   0.803  0.0558 -0.7339  0.2254
 7934TIP3   OH240373   4.910   4.467   7.400 -0.1268 -0.3520 -0.2907
 7934TIP3    H140374   4.819   4.460   7.375 -0.4655  0.4973  0.6105
 7934TIP3    H240375   4.919   4.413   7.478 -0.1046  0.3147  0.1824
 7935TIP3   OH240376   3.459   0.096   1.383  0.0430 -0.3865 -0.0953
 7935TIP3    H140377   3.540   0.101   1.331  0.8969 -1.8025  1.0462
 7935TIP3    H240378   3.391   0.079   1.318  0.4526  1.7107 -1.1971
 7936TIP3   OH240379   2.156   1.022   1.265 -0.1840  0.0709  0.1394
 7936TIP3    H140380   2.169   1.110   1.230  0.6412 -0.2886 -0.4688
 7936TIP3    H240381   2.062   1.018   1.284  0.0895  1.7773  2.0986
 7937TIP3   OH240382   2.579   6.174   0.599 -0.1588 -0.2655 -0.1856
 7937TIP3    H140383   2.582   6.126   0.682 -0.0745  0.0887  0.0208
 7937TIP3    H240384   2.533   6.255   0.620  0.1049 -0.0522 -0.4229
 7938TIP3   OH240385   0.250   2.566   7.191  0.2367  0.1422 -0.3033
 7938TIP3    H140386   0.336   2.607   7.203  0.5292 -0.4709 -0.2870
 7938TIP3    H240387   0.253   2.489   7.247 -0.9289  0.9899  0.9913
 7939TIP3   OH240388   4.650   2.026   1.385 -0.1841 -0.2048  0.0358
 7939TIP3    H140389   4.594   1.987   1.452  1.2826  2.9025  3.4155
 7939TIP3    H240390   4.593   2.087   1.339 -0.5951 -0.4243  0.2442
 7940TIP3   OH240391   3.113   3.264   0.048  0.1715  0.0020  0.6478
 7940TIP3    H140392   3.193   3.283  -0.003 -0.2504 -0.1706 -0.0998
 7940TIP3    H240393   3.065   3.347   0.047  0.0957 -0.0424  0.6423
 7941TIP3   OH240394   3.419   2.085   2.977  0.0730 -0.1279  0.1552
 7941TIP3    H140395   3.511   2.091   3.005 -0.0019  2.5861  0.0558
 7941TIP3    H240396   3.381   2.019   3.036  1.7394 -0.2750  1.1471
 7942TIP3   OH240397   2.939   3.439   8.208 -0.1391 -0.1391 -0.2060
 7942TIP3    H140398   2.939   3.368   8.272  3.1641 -0.1376 -0.0721
 7942TIP3    H240399   2.983   3.402   8.131  0.8376  1.4717 -0.4607
 7943TIP3   OH240400   5.552   0.377   7.827 -0.0760  0.0333 -0.4053
 7943TIP3    H140401   5.521   0.369   7.737 -1.2801 -0.1427 -0.0034
 7943TIP3    H240402   5.635   0.424   7.820 -0.8788  1.3734 -1.4935
 7944TIP3   OH240403   4.425   2.015   2.776  0.6830 -0.9475  0.5672
 7944TIP3    H140404   4.414   2.098   2.822 -1.0899  0.1020 -1.5680
 7944TIP3    H240405   4.384   1.950   2.833 -0.0310  0.0526  1.2229
 7945TIP3   OH240406   4.617   1.242   8.967  0.1923  0.4199 -0.0624
 7945TIP3    H140407   4.629   1.326   9.011 -1.0677  0.1194  0.9133
 7945TIP3    H240408   4.523   1.237   8.950  0.2201 -0.8735  0.0907
 7946TIP3   OH240409   5.605   4.036   1.189  0.1289  0.7833  0.4490
 7946TIP3    H140410   5.663   4.092   1.138 -0.1316  0.9464  0.3292
 7946TIP3    H240411   5.517   4.068   1.168 -0.1720 -0.9178 -1.1609
 7947TIP3   OH240412   3.289   4.523   0.386  0.3776  0.3046  0.3271
 7947TIP3    H140413   3.272   4.438   0.426 -0.9512  0.7280  0.7161
 7947TIP3    H240414   3.294   4.584   0.460 -1.2037  0.9490 -0.0522
 7948TIP3   OH240415   1.244   3.916   7.216 -0.7765 -0.1207  0.3026
 7948TIP3    H140416   1.254   3.866   7.297 -1.6989  1.2411  1.2985
 7948TIP3    H240417   1.167   3.878   7.174  0.0320 -1.2056 -0.2606
 7949TIP3   OH240418   1.091   3.513   1.960  0.5108  0.5060 -0.0183
 7949TIP3    H140419   1.064   3.584   1.901  0.2802  2.2971  2.1178
 7949TIP3    H240420   1.009   3.478   1.994  0.6506 -0.3941 -0.5794
 7950TIP3   OH240421   0.810   1.517   8.396  0.1535  0.4697 -0.4256
 7950TIP3    H140422   0.739   1.495   8.335  0.9060  0.8275 -1.4642
 7950TIP3    H240423   0.885   1.466   8.365  1.0540  2.0158 -0.9550
 7951TIP3   OH240424   2.393   5.317   1.135 -0.4653 -0.5450  0.6052
 7951TIP3    H140425   2.413   5.295   1.225  0.9378 -2.1447 -0.0471
 7951TIP3    H240426   2.324   5.257   1.109  0.1971 -1.1422  0.1803
 7952TIP3   OH240427   0.176   3.969   8.163  0.7908  0.9692 -0.4620
 7952TIP3    H140428   0.117   3.991   8.235  1.1602  2.3996 -0.5654
 7952TIP3    H240429   0.123   3.981   8.084 -0.4403 -3.1606 -0.4488
 7953TIP3   OH240430   4.784   2.601   8.960 -0.1335  0.1934 -0.3264
 7953TIP3    H140431   4.727   2.606   8.882  0.4857  0.5778 -0.7626
 7953TIP3    H240432   4.773   2.511   8.991 -0.4495  0.0558 -0.8117
 7954TIP3   OH240433   0.350   3.190   7.846  0.3818  0.6974  0.2321
 7954TIP3    H140434   0.370   3.248   7.920  1.3197 -0.4452  0.9089
 7954TIP3    H240435   0.324   3.250   7.776 -0.4304  1.8128  1.4410
 7955TIP3   OH240436   0.533   6.368   2.040 -0.0608 -0.1938 -0.6596
 7955TIP3    H140437   0.519   6.456   2.005  0.5702 -0.4701 -1.6471
 7955TIP3    H240438   0.628   6.360   2.048 -0.1850  0.0898  1.7950
 7956TIP3   OH240439   5.967   1.131   2.244  0.7360 -0.3766 -0.4711
 7956TIP3    H140440   5.939   1.115   2.334  2.5380 -0.2319  0.1463
 7956TIP3    H240441   5.885   1.139   2.195 -0.2759 -0.9957  1.0443
 7957TIP3   OH240442   5.788   6.156   7.388  0.0506  0.1047 -0.2933
 7957TIP3    H140443   5.724   6.087   7.371  1.5874 -1.1829 -1.1353
 7957TIP3    H240444   5.794   6.203   7.305 -0.6276  0.9792  0.1332
 7958TIP3   OH240445   3.269   6.307   8.000  0.0597 -0.5249 -0.1767
 7958TIP3    H140446   3.364   6.313   7.990  0.0859 -0.6958 -0.0264
 7958TIP3    H240447   3.253   6.327   8.092  0.1502 -2.7012  0.3785
 7959TIP3   OH240448   4.336   5.844   2.366 -0.2692 -0.3243  0.1125
 7959TIP3    H140449   4.394   5.769   2.381  0.5414 -0.1892 -1.9302
 7959TIP3    H240450   4.252   5.806   2.341 -0.4602 -0.5232  1.0224
 7960TIP3   OH240451   4.645   4.230   2.616  0.0483 -0.1539 -0.7202
 7960TIP3    H140452   4.609   4.252   2.530 -0.9996 -0.2998 -0.3369
 7960TIP3    H240453   4.609   4.297   2.675  0.6494 -0.1354 -0.3638
 7961TIP3   OH240454   5.103   2.941   8.619  0.0327 -0.1311  0.0223
 7961TIP3    H140455   5.190   2.912   8.646  0.5345 -1.1440 -2.4739
 7961TIP3    H240456   5.050   2.861   8.621 -0.0481 -0.1307 -1.3284
 7962TIP3   OH240457   1.010   0.577   1.672  0.3736 -0.3561 -0.2656
 7962TIP3    H140458   0.978   0.607   1.757 -0.5611 -0.0225 -0.7232
 7962TIP3    H240459   1.104   0.596   1.674 -0.1702  3.1244 -0.6940
 7963TIP3   OH240460   2.650   1.368   7.143 -0.4251 -0.0017 -0.3836
 7963TIP3    H140461   2.579   1.335   7.087 -0.4320 -0.0571 -0.3421
 7963TIP3    H240462   2.677   1.450   7.101  0.4821 -0.7092 -1.2363
 7964TIP3   OH240463   1.977   1.414   2.479  0.3190  0.0685 -0.5186
 7964TIP3    H140464   2.058   1.384   2.437  0.1109  0.3275 -1.1117
 7964TIP3    H240465   1.990   1.508   2.493  1.2609 -0.3747  1.9979
 7965TIP3   OH240466   4.449   5.522   7.124  0.0338  0.2755 -0.3509
 7965TIP3    H140467   4.465   5.432   7.096 -1.1713  0.0385 -0.3267
 7965TIP3    H240468   4.358   5.522   7.156 -0.1338  1.5960 -0.7636
 7966TIP3   OH240469   2.755   4.005   0.058 -0.6864 -0.4613  0.2672
 7966TIP3    H140470   2.806   3.967  -0.013 -0.6144 -1.1741  0.6929
 7966TIP3    H240471   2.810   3.996   0.136 -1.3647 -1.0667  0.6927
 7967TIP3   OH240472   3.314   4.891   2.446 -0.3611  0.1794  0.6535
 7967TIP3    H140473   3.366   4.971   2.449 -1.1513  0.9553 -2.5294
 7967TIP3    H240474   3.237   4.915   2.394 -1.4604 -2.2324  1.0370
 7968TIP3   OH240475   3.733   6.049   7.326  0.1030  0.8148 -0.8122
 7968TIP3    H140476   3.820   6.052   7.287  0.3306 -2.5357 -0.8967
 7968TIP3    H240477   3.676   6.094   7.264  1.5599  1.9394 -1.3605
 7969TIP3   OH240478   3.363   1.051   8.643  0.3525  0.3112 -0.2143
 7969TIP3    H140479   3.285   1.079   8.692 -0.8470 -1.7044 -0.8400
 7969TIP3    H240480   3.360   1.102   8.562 -1.3180 -0.9154 -0.9811
 7970TIP3   OH240481   1.823   0.623   0.074  0.2753  0.0735  0.5533
 7970TIP3    H140482   1.734   0.600   0.050  0.5535 -0.1606 -0.3014
 7970TIP3    H240483   1.878   0.576   0.011  0.9397  1.5084  0.0168
 7971TIP3   OH240484   0.501   5.163   6.445 -0.1745 -0.0248  0.5656
 7971TIP3    H140485   0.497   5.252   6.411 -1.3398 -0.4188 -0.4119
 7971TIP3    H240486   0.594   5.141   6.444  0.0738  0.9952  0.3157
 7972TIP3   OH240487   0.032   4.178   0.684  0.5314 -0.3810  0.1617
 7972TIP3    H140488  -0.038   4.242   0.672  0.4844 -0.4631  0.0051
 7972TIP3    H240489   0.107   4.215   0.637  0.2327 -0.8923 -0.7397
 7973TIP3   OH240490   0.933   3.900   2.556  0.3876 -0.3648 -0.3181
 7973TIP3    H140491   0.894   3.814   2.537  0.6398 -0.4830 -0.3074
 7973TIP3    H240492   1.019   3.897   2.512  0.5761 -0.2818  0.0441
 7974TIP3   OH240493   3.497   5.296   2.034  0.0393  0.3787  0.1337
 7974TIP3    H140494   3.582   5.276   2.075 -0.2336  0.0329  0.5349
 7974TIP3    H240495   3.458   5.210   2.018  0.1201  0.5053 -0.8192
 7975TIP3   OH240496   1.022   5.822   0.445  0.2270  0.5667  0.0270
 7975TIP3    H140497   1.112   5.848   0.463  0.0127  0.1327  2.0146
 7975TIP3    H240498   0.969   5.888   0.489 -0.3549 -0.7603  1.4013
 7976TIP3   OH240499   4.290   3.933   8.405  0.3234 -0.4193 -0.7680
 7976TIP3    H140500   4.233   3.907   8.477 -0.3443  0.6276 -0.9030
 7976TIP3    H240501   4.371   3.884   8.420 -0.8467 -2.5705 -1.0190
 7977TIP3   OH240502   1.911   5.290   7.162 -0.5557  0.3627  0.4651
 7977TIP3    H140503   1.944   5.369   7.119 -0.4479  0.2785  0.3926
 7977TIP3    H240504   1.971   5.275   7.235  0.4962 -0.6692 -0.5785
   6.44467   6.44467   9.41261
